LAMMPS data file generated by pbc_datagen
       424 atoms
       192 bonds
         0 angles
         0 dihedrals
         0 impropers
         7 atom types
         1 bond types
         0 angle types
         0 dihedral types
         0 improper types
 
    0.000    25.832           xlo xhi
    0.000    25.832           ylo yhi
    0.000    25.832           zlo zhi
    0.000     0.000     0.000 xy xz yz
 
 Atoms
 
    1 1     7 0.000000   7.579   5.337   5.337   # Zn1
    2 1     5 0.000000   6.458   6.458   6.458   # O1
    3 1     7 0.000000   5.337   7.579   5.337   # Zn1
    4 1     7 0.000000   5.337   5.337   7.579   # Zn1
    5 1     7 0.000000   7.579   7.579   7.579   # Zn1
    6 1     7 0.000000  18.253  20.495   5.337   # Zn1
    7 1     5 0.000000  19.374  19.374   6.458   # O1
    8 1     7 0.000000  20.495  18.253   5.337   # Zn1
    9 1     7 0.000000  20.495  20.495   7.579   # Zn1
   10 1     7 0.000000  18.253  18.253   7.579   # Zn1
   11 1     7 0.000000  18.253   5.337  20.495   # Zn1
   12 1     5 0.000000  19.374   6.458  19.374   # O1
   13 1     7 0.000000  20.495   7.579  20.495   # Zn1
   14 1     7 0.000000  20.495   5.337  18.253   # Zn1
   15 1     7 0.000000  18.253   7.579  18.253   # Zn1
   16 1     7 0.000000   7.579  20.495  20.495   # Zn1
   17 1     5 0.000000   6.458  19.374  19.374   # O1
   18 1     7 0.000000   5.337  18.253  20.495   # Zn1
   19 1     7 0.000000   5.337  20.495  18.253   # Zn1
   20 1     7 0.000000   7.579  18.253  18.253   # Zn1
   21 1     7 0.000000   5.337   7.579  20.495   # Zn1
   22 1     5 0.000000   6.458   6.458  19.374   # O1
   23 1     7 0.000000   7.579   5.337  20.495   # Zn1
   24 1     7 0.000000   5.337   5.337  18.253   # Zn1
   25 1     7 0.000000   7.579   7.579  18.253   # Zn1
   26 1     7 0.000000  20.495  18.253  20.495   # Zn1
   27 1     5 0.000000  19.374  19.374  19.374   # O1
   28 1     7 0.000000  18.253  20.495  20.495   # Zn1
   29 1     7 0.000000  20.495  20.495  18.253   # Zn1
   30 1     7 0.000000  18.253  18.253  18.253   # Zn1
   31 1     7 0.000000   5.337  18.253   5.337   # Zn1
   32 1     5 0.000000   6.458  19.374   6.458   # O1
   33 1     7 0.000000   7.579  20.495   5.337   # Zn1
   34 1     7 0.000000   5.337  20.495   7.579   # Zn1
   35 1     7 0.000000   7.579  18.253   7.579   # Zn1
   36 1     7 0.000000  20.495   7.579   5.337   # Zn1
   37 1     5 0.000000  19.374   6.458   6.458   # O1
   38 1     7 0.000000  18.253   5.337   5.337   # Zn1
   39 1     7 0.000000  20.495   5.337   7.579   # Zn1
   40 1     7 0.000000  18.253   7.579   7.579   # Zn1
   41 1     6 0.000000   7.282   5.634  29.293   # O2
   42 1     1 0.000000   6.458   6.458  28.707   # C1
   43 1     2 0.000000   6.458   6.458  27.222   # C2
   44 1     3 0.000000   7.308   5.608  26.527   # C3
   45 1     4 0.000000   7.876   5.040  26.989   # H1
   46 1     6 0.000000   7.282   5.634  22.371   # O2
   47 1     1 0.000000   6.458   6.458  22.957   # C1
   48 1     2 0.000000   6.458   6.458  24.442   # C2
   49 1     3 0.000000   7.308   5.608  25.137   # C3
   50 1     4 0.000000   7.876   5.040  24.675   # H1
   51 1     6 0.000000   5.634   7.282  29.293   # O2
   52 1     3 0.000000   5.608   7.308  26.527   # C3
   53 1     4 0.000000   5.040   7.876  26.989   # H1
   54 1     6 0.000000   5.634   7.282  22.371   # O2
   55 1     3 0.000000   5.608   7.308  25.137   # C3
   56 1     4 0.000000   5.040   7.876  24.675   # H1
   57 1     6 0.000000  18.550  20.198  29.293   # O2
   58 1     1 0.000000  19.374  19.374  28.707   # C1
   59 1     2 0.000000  19.374  19.374  27.222   # C2
   60 1     3 0.000000  18.524  20.224  26.527   # C3
   61 1     4 0.000000  17.956  20.792  26.989   # H1
   62 1     6 0.000000  18.550  20.198  22.371   # O2
   63 1     1 0.000000  19.374  19.374  22.957   # C1
   64 1     2 0.000000  19.374  19.374  24.442   # C2
   65 1     3 0.000000  18.524  20.224  25.137   # C3
   66 1     4 0.000000  17.956  20.792  24.675   # H1
   67 1     6 0.000000  20.198  18.550  29.293   # O2
   68 1     3 0.000000  20.224  18.524  26.527   # C3
   69 1     4 0.000000  20.792  17.956  26.989   # H1
   70 1     6 0.000000  20.198  18.550  22.371   # O2
   71 1     3 0.000000  20.224  18.524  25.137   # C3
   72 1     4 0.000000  20.792  17.956  24.675   # H1
   73 1     6 0.000000  18.550   5.634  22.371   # O2
   74 1     1 0.000000  19.374   6.458  22.957   # C1
   75 1     2 0.000000  19.374   6.458  24.442   # C2
   76 1     3 0.000000  18.524   5.608  25.137   # C3
   77 1     4 0.000000  17.956   5.040  24.675   # H1
   78 1     6 0.000000  18.550   5.634  29.293   # O2
   79 1     1 0.000000  19.374   6.458  28.707   # C1
   80 1     2 0.000000  19.374   6.458  27.222   # C2
   81 1     3 0.000000  18.524   5.608  26.527   # C3
   82 1     4 0.000000  17.956   5.040  26.989   # H1
   83 1     6 0.000000  20.198   7.282  22.371   # O2
   84 1     3 0.000000  20.224   7.308  25.137   # C3
   85 1     4 0.000000  20.792   7.876  24.675   # H1
   86 1     6 0.000000  20.198   7.282  29.293   # O2
   87 1     3 0.000000  20.224   7.308  26.527   # C3
   88 1     4 0.000000  20.792   7.876  26.989   # H1
   89 1     6 0.000000   7.282  20.198  22.371   # O2
   90 1     1 0.000000   6.458  19.374  22.957   # C1
   91 1     2 0.000000   6.458  19.374  24.442   # C2
   92 1     3 0.000000   7.308  20.224  25.137   # C3
   93 1     4 0.000000   7.876  20.792  24.675   # H1
   94 1     6 0.000000   7.282  20.198  29.293   # O2
   95 1     1 0.000000   6.458  19.374  28.707   # C1
   96 1     2 0.000000   6.458  19.374  27.222   # C2
   97 1     3 0.000000   7.308  20.224  26.527   # C3
   98 1     4 0.000000   7.876  20.792  26.989   # H1
   99 1     6 0.000000   5.634  18.550  22.371   # O2
  100 1     3 0.000000   5.608  18.524  25.137   # C3
  101 1     4 0.000000   5.040  17.956  24.675   # H1
  102 1     6 0.000000   5.634  18.550  29.293   # O2
  103 1     3 0.000000   5.608  18.524  26.527   # C3
  104 1     4 0.000000   5.040  17.956  26.989   # H1
  105 1     6 0.000000  29.293   7.282   5.634   # O2
  106 1     1 0.000000  28.707   6.458   6.458   # C1
  107 1     2 0.000000  27.222   6.458   6.458   # C2
  108 1     3 0.000000  26.527   7.308   5.608   # C3
  109 1     4 0.000000  26.989   7.876   5.040   # H1
  110 1     6 0.000000  22.371   7.282   5.634   # O2
  111 1     1 0.000000  22.957   6.458   6.458   # C1
  112 1     2 0.000000  24.442   6.458   6.458   # C2
  113 1     3 0.000000  25.137   7.308   5.608   # C3
  114 1     4 0.000000  24.675   7.876   5.040   # H1
  115 1     6 0.000000  29.293   5.634   7.282   # O2
  116 1     3 0.000000  26.527   5.608   7.308   # C3
  117 1     4 0.000000  26.989   5.040   7.876   # H1
  118 1     6 0.000000  22.371   5.634   7.282   # O2
  119 1     3 0.000000  25.137   5.608   7.308   # C3
  120 1     4 0.000000  24.675   5.040   7.876   # H1
  121 1     6 0.000000  29.293  18.550  20.198   # O2
  122 1     1 0.000000  28.707  19.374  19.374   # C1
  123 1     2 0.000000  27.222  19.374  19.374   # C2
  124 1     3 0.000000  26.527  18.524  20.224   # C3
  125 1     4 0.000000  26.989  17.956  20.792   # H1
  126 1     6 0.000000  22.371  18.550  20.198   # O2
  127 1     1 0.000000  22.957  19.374  19.374   # C1
  128 1     2 0.000000  24.442  19.374  19.374   # C2
  129 1     3 0.000000  25.137  18.524  20.224   # C3
  130 1     4 0.000000  24.675  17.956  20.792   # H1
  131 1     6 0.000000  29.293  20.198  18.550   # O2
  132 1     3 0.000000  26.527  20.224  18.524   # C3
  133 1     4 0.000000  26.989  20.792  17.956   # H1
  134 1     6 0.000000  22.371  20.198  18.550   # O2
  135 1     3 0.000000  25.137  20.224  18.524   # C3
  136 1     4 0.000000  24.675  20.792  17.956   # H1
  137 1     6 0.000000  22.371  18.550   5.634   # O2
  138 1     1 0.000000  22.957  19.374   6.458   # C1
  139 1     2 0.000000  24.442  19.374   6.458   # C2
  140 1     3 0.000000  25.137  18.524   5.608   # C3
  141 1     4 0.000000  24.675  17.956   5.040   # H1
  142 1     6 0.000000  29.293  18.550   5.634   # O2
  143 1     1 0.000000  28.707  19.374   6.458   # C1
  144 1     2 0.000000  27.222  19.374   6.458   # C2
  145 1     3 0.000000  26.527  18.524   5.608   # C3
  146 1     4 0.000000  26.989  17.956   5.040   # H1
  147 1     6 0.000000  22.371  20.198   7.282   # O2
  148 1     3 0.000000  25.137  20.224   7.308   # C3
  149 1     4 0.000000  24.675  20.792   7.876   # H1
  150 1     6 0.000000  29.293  20.198   7.282   # O2
  151 1     3 0.000000  26.527  20.224   7.308   # C3
  152 1     4 0.000000  26.989  20.792   7.876   # H1
  153 1     6 0.000000  22.371   7.282  20.198   # O2
  154 1     1 0.000000  22.957   6.458  19.374   # C1
  155 1     2 0.000000  24.442   6.458  19.374   # C2
  156 1     3 0.000000  25.137   7.308  20.224   # C3
  157 1     4 0.000000  24.675   7.876  20.792   # H1
  158 1     6 0.000000  29.293   7.282  20.198   # O2
  159 1     1 0.000000  28.707   6.458  19.374   # C1
  160 1     2 0.000000  27.222   6.458  19.374   # C2
  161 1     3 0.000000  26.527   7.308  20.224   # C3
  162 1     4 0.000000  26.989   7.876  20.792   # H1
  163 1     6 0.000000  22.371   5.634  18.550   # O2
  164 1     3 0.000000  25.137   5.608  18.524   # C3
  165 1     4 0.000000  24.675   5.040  17.956   # H1
  166 1     6 0.000000  29.293   5.634  18.550   # O2
  167 1     3 0.000000  26.527   5.608  18.524   # C3
  168 1     4 0.000000  26.989   5.040  17.956   # H1
  169 1     6 0.000000   5.634  29.293   7.282   # O2
  170 1     1 0.000000   6.458  28.707   6.458   # C1
  171 1     2 0.000000   6.458  27.222   6.458   # C2
  172 1     3 0.000000   5.608  26.527   7.308   # C3
  173 1     4 0.000000   5.040  26.989   7.876   # H1
  174 1     6 0.000000   5.634  22.371   7.282   # O2
  175 1     1 0.000000   6.458  22.957   6.458   # C1
  176 1     2 0.000000   6.458  24.442   6.458   # C2
  177 1     3 0.000000   5.608  25.137   7.308   # C3
  178 1     4 0.000000   5.040  24.675   7.876   # H1
  179 1     6 0.000000   7.282  29.293   5.634   # O2
  180 1     3 0.000000   7.308  26.527   5.608   # C3
  181 1     4 0.000000   7.876  26.989   5.040   # H1
  182 1     6 0.000000   7.282  22.371   5.634   # O2
  183 1     3 0.000000   7.308  25.137   5.608   # C3
  184 1     4 0.000000   7.876  24.675   5.040   # H1
  185 1     6 0.000000  20.198  29.293  18.550   # O2
  186 1     1 0.000000  19.374  28.707  19.374   # C1
  187 1     2 0.000000  19.374  27.222  19.374   # C2
  188 1     3 0.000000  20.224  26.527  18.524   # C3
  189 1     4 0.000000  20.792  26.989  17.956   # H1
  190 1     6 0.000000  20.198  22.371  18.550   # O2
  191 1     1 0.000000  19.374  22.957  19.374   # C1
  192 1     2 0.000000  19.374  24.442  19.374   # C2
  193 1     3 0.000000  20.224  25.137  18.524   # C3
  194 1     4 0.000000  20.792  24.675  17.956   # H1
  195 1     6 0.000000  18.550  29.293  20.198   # O2
  196 1     3 0.000000  18.524  26.527  20.224   # C3
  197 1     4 0.000000  17.956  26.989  20.792   # H1
  198 1     6 0.000000  18.550  22.371  20.198   # O2
  199 1     3 0.000000  18.524  25.137  20.224   # C3
  200 1     4 0.000000  17.956  24.675  20.792   # H1
  201 1     6 0.000000   5.634  22.371  18.550   # O2
  202 1     1 0.000000   6.458  22.957  19.374   # C1
  203 1     2 0.000000   6.458  24.442  19.374   # C2
  204 1     3 0.000000   5.608  25.137  18.524   # C3
  205 1     4 0.000000   5.040  24.675  17.956   # H1
  206 1     6 0.000000   5.634  29.293  18.550   # O2
  207 1     1 0.000000   6.458  28.707  19.374   # C1
  208 1     2 0.000000   6.458  27.222  19.374   # C2
  209 1     3 0.000000   5.608  26.527  18.524   # C3
  210 1     4 0.000000   5.040  26.989  17.956   # H1
  211 1     6 0.000000   7.282  22.371  20.198   # O2
  212 1     3 0.000000   7.308  25.137  20.224   # C3
  213 1     4 0.000000   7.876  24.675  20.792   # H1
  214 1     6 0.000000   7.282  29.293  20.198   # O2
  215 1     3 0.000000   7.308  26.527  20.224   # C3
  216 1     4 0.000000   7.876  26.989  20.792   # H1
  217 1     6 0.000000  20.198  22.371   7.282   # O2
  218 1     1 0.000000  19.374  22.957   6.458   # C1
  219 1     2 0.000000  19.374  24.442   6.458   # C2
  220 1     3 0.000000  20.224  25.137   7.308   # C3
  221 1     4 0.000000  20.792  24.675   7.876   # H1
  222 1     6 0.000000  20.198  29.293   7.282   # O2
  223 1     1 0.000000  19.374  28.707   6.458   # C1
  224 1     2 0.000000  19.374  27.222   6.458   # C2
  225 1     3 0.000000  20.224  26.527   7.308   # C3
  226 1     4 0.000000  20.792  26.989   7.876   # H1
  227 1     6 0.000000  18.550  22.371   5.634   # O2
  228 1     3 0.000000  18.524  25.137   5.608   # C3
  229 1     4 0.000000  17.956  24.675   5.040   # H1
  230 1     6 0.000000  18.550  29.293   5.634   # O2
  231 1     3 0.000000  18.524  26.527   5.608   # C3
  232 1     4 0.000000  17.956  26.989   5.040   # H1
  233 1     6 0.000000   7.282  18.550  16.377   # O2
  234 1     1 0.000000   6.458  19.374  15.791   # C1
  235 1     2 0.000000   6.458  19.374  14.306   # C2
  236 1     3 0.000000   7.308  18.524  13.611   # C3
  237 1     4 0.000000   7.876  17.956  14.073   # H1
  238 1     6 0.000000   7.282  18.550   9.455   # O2
  239 1     1 0.000000   6.458  19.374  10.041   # C1
  240 1     2 0.000000   6.458  19.374  11.526   # C2
  241 1     3 0.000000   7.308  18.524  12.221   # C3
  242 1     4 0.000000   7.876  17.956  11.759   # H1
  243 1     6 0.000000   5.634  20.198  16.377   # O2
  244 1     3 0.000000   5.608  20.224  13.611   # C3
  245 1     4 0.000000   5.040  20.792  14.073   # H1
  246 1     6 0.000000   5.634  20.198   9.455   # O2
  247 1     3 0.000000   5.608  20.224  12.221   # C3
  248 1     4 0.000000   5.040  20.792  11.759   # H1
  249 1     6 0.000000  18.550   7.282  16.377   # O2
  250 1     1 0.000000  19.374   6.458  15.791   # C1
  251 1     2 0.000000  19.374   6.458  14.306   # C2
  252 1     3 0.000000  18.524   7.308  13.611   # C3
  253 1     4 0.000000  17.956   7.876  14.073   # H1
  254 1     6 0.000000  18.550   7.282   9.455   # O2
  255 1     1 0.000000  19.374   6.458  10.041   # C1
  256 1     2 0.000000  19.374   6.458  11.526   # C2
  257 1     3 0.000000  18.524   7.308  12.221   # C3
  258 1     4 0.000000  17.956   7.876  11.759   # H1
  259 1     6 0.000000  20.198   5.634  16.377   # O2
  260 1     3 0.000000  20.224   5.608  13.611   # C3
  261 1     4 0.000000  20.792   5.040  14.073   # H1
  262 1     6 0.000000  20.198   5.634   9.455   # O2
  263 1     3 0.000000  20.224   5.608  12.221   # C3
  264 1     4 0.000000  20.792   5.040  11.759   # H1
  265 1     6 0.000000  18.550  18.550   9.455   # O2
  266 1     1 0.000000  19.374  19.374  10.041   # C1
  267 1     2 0.000000  19.374  19.374  11.526   # C2
  268 1     3 0.000000  18.524  18.524  12.221   # C3
  269 1     4 0.000000  17.956  17.956  11.759   # H1
  270 1     6 0.000000  18.550  18.550  16.377   # O2
  271 1     1 0.000000  19.374  19.374  15.791   # C1
  272 1     2 0.000000  19.374  19.374  14.306   # C2
  273 1     3 0.000000  18.524  18.524  13.611   # C3
  274 1     4 0.000000  17.956  17.956  14.073   # H1
  275 1     6 0.000000  20.198  20.198   9.455   # O2
  276 1     3 0.000000  20.224  20.224  12.221   # C3
  277 1     4 0.000000  20.792  20.792  11.759   # H1
  278 1     6 0.000000  20.198  20.198  16.377   # O2
  279 1     3 0.000000  20.224  20.224  13.611   # C3
  280 1     4 0.000000  20.792  20.792  14.073   # H1
  281 1     6 0.000000   7.282   7.282   9.455   # O2
  282 1     1 0.000000   6.458   6.458  10.041   # C1
  283 1     2 0.000000   6.458   6.458  11.526   # C2
  284 1     3 0.000000   7.308   7.308  12.221   # C3
  285 1     4 0.000000   7.876   7.876  11.759   # H1
  286 1     6 0.000000   7.282   7.282  16.377   # O2
  287 1     1 0.000000   6.458   6.458  15.791   # C1
  288 1     2 0.000000   6.458   6.458  14.306   # C2
  289 1     3 0.000000   7.308   7.308  13.611   # C3
  290 1     4 0.000000   7.876   7.876  14.073   # H1
  291 1     6 0.000000   5.634   5.634   9.455   # O2
  292 1     3 0.000000   5.608   5.608  12.221   # C3
  293 1     4 0.000000   5.040   5.040  11.759   # H1
  294 1     6 0.000000   5.634   5.634  16.377   # O2
  295 1     3 0.000000   5.608   5.608  13.611   # C3
  296 1     4 0.000000   5.040   5.040  14.073   # H1
  297 1     6 0.000000   5.634  16.377  20.198   # O2
  298 1     1 0.000000   6.458  15.791  19.374   # C1
  299 1     2 0.000000   6.458  14.306  19.374   # C2
  300 1     3 0.000000   5.608  13.611  20.224   # C3
  301 1     4 0.000000   5.040  14.073  20.792   # H1
  302 1     6 0.000000   5.634   9.455  20.198   # O2
  303 1     1 0.000000   6.458  10.041  19.374   # C1
  304 1     2 0.000000   6.458  11.526  19.374   # C2
  305 1     3 0.000000   5.608  12.221  20.224   # C3
  306 1     4 0.000000   5.040  11.759  20.792   # H1
  307 1     6 0.000000   7.282  16.377  18.550   # O2
  308 1     3 0.000000   7.308  13.611  18.524   # C3
  309 1     4 0.000000   7.876  14.073  17.956   # H1
  310 1     6 0.000000   7.282   9.455  18.550   # O2
  311 1     3 0.000000   7.308  12.221  18.524   # C3
  312 1     4 0.000000   7.876  11.759  17.956   # H1
  313 1     6 0.000000  20.198  16.377   5.634   # O2
  314 1     1 0.000000  19.374  15.791   6.458   # C1
  315 1     2 0.000000  19.374  14.306   6.458   # C2
  316 1     3 0.000000  20.224  13.611   5.608   # C3
  317 1     4 0.000000  20.792  14.073   5.040   # H1
  318 1     6 0.000000  20.198   9.455   5.634   # O2
  319 1     1 0.000000  19.374  10.041   6.458   # C1
  320 1     2 0.000000  19.374  11.526   6.458   # C2
  321 1     3 0.000000  20.224  12.221   5.608   # C3
  322 1     4 0.000000  20.792  11.759   5.040   # H1
  323 1     6 0.000000  18.550  16.377   7.282   # O2
  324 1     3 0.000000  18.524  13.611   7.308   # C3
  325 1     4 0.000000  17.956  14.073   7.876   # H1
  326 1     6 0.000000  18.550   9.455   7.282   # O2
  327 1     3 0.000000  18.524  12.221   7.308   # C3
  328 1     4 0.000000  17.956  11.759   7.876   # H1
  329 1     6 0.000000   5.634   9.455   5.634   # O2
  330 1     1 0.000000   6.458  10.041   6.458   # C1
  331 1     2 0.000000   6.458  11.526   6.458   # C2
  332 1     3 0.000000   5.608  12.221   5.608   # C3
  333 1     4 0.000000   5.040  11.759   5.040   # H1
  334 1     6 0.000000   5.634  16.377   5.634   # O2
  335 1     1 0.000000   6.458  15.791   6.458   # C1
  336 1     2 0.000000   6.458  14.306   6.458   # C2
  337 1     3 0.000000   5.608  13.611   5.608   # C3
  338 1     4 0.000000   5.040  14.073   5.040   # H1
  339 1     6 0.000000   7.282   9.455   7.282   # O2
  340 1     3 0.000000   7.308  12.221   7.308   # C3
  341 1     4 0.000000   7.876  11.759   7.876   # H1
  342 1     6 0.000000   7.282  16.377   7.282   # O2
  343 1     3 0.000000   7.308  13.611   7.308   # C3
  344 1     4 0.000000   7.876  14.073   7.876   # H1
  345 1     6 0.000000  20.198   9.455  20.198   # O2
  346 1     1 0.000000  19.374  10.041  19.374   # C1
  347 1     2 0.000000  19.374  11.526  19.374   # C2
  348 1     3 0.000000  20.224  12.221  20.224   # C3
  349 1     4 0.000000  20.792  11.759  20.792   # H1
  350 1     6 0.000000  20.198  16.377  20.198   # O2
  351 1     1 0.000000  19.374  15.791  19.374   # C1
  352 1     2 0.000000  19.374  14.306  19.374   # C2
  353 1     3 0.000000  20.224  13.611  20.224   # C3
  354 1     4 0.000000  20.792  14.073  20.792   # H1
  355 1     6 0.000000  18.550   9.455  18.550   # O2
  356 1     3 0.000000  18.524  12.221  18.524   # C3
  357 1     4 0.000000  17.956  11.759  17.956   # H1
  358 1     6 0.000000  18.550  16.377  18.550   # O2
  359 1     3 0.000000  18.524  13.611  18.524   # C3
  360 1     4 0.000000  17.956  14.073  17.956   # H1
  361 1     6 0.000000  16.377   7.282  18.550   # O2
  362 1     1 0.000000  15.791   6.458  19.374   # C1
  363 1     2 0.000000  14.306   6.458  19.374   # C2
  364 1     3 0.000000  13.611   7.308  18.524   # C3
  365 1     4 0.000000  14.073   7.876  17.956   # H1
  366 1     6 0.000000   9.455   7.282  18.550   # O2
  367 1     1 0.000000  10.041   6.458  19.374   # C1
  368 1     2 0.000000  11.526   6.458  19.374   # C2
  369 1     3 0.000000  12.221   7.308  18.524   # C3
  370 1     4 0.000000  11.759   7.876  17.956   # H1
  371 1     6 0.000000  16.377   5.634  20.198   # O2
  372 1     3 0.000000  13.611   5.608  20.224   # C3
  373 1     4 0.000000  14.073   5.040  20.792   # H1
  374 1     6 0.000000   9.455   5.634  20.198   # O2
  375 1     3 0.000000  12.221   5.608  20.224   # C3
  376 1     4 0.000000  11.759   5.040  20.792   # H1
  377 1     6 0.000000  16.377  18.550   7.282   # O2
  378 1     1 0.000000  15.791  19.374   6.458   # C1
  379 1     2 0.000000  14.306  19.374   6.458   # C2
  380 1     3 0.000000  13.611  18.524   7.308   # C3
  381 1     4 0.000000  14.073  17.956   7.876   # H1
  382 1     6 0.000000   9.455  18.550   7.282   # O2
  383 1     1 0.000000  10.041  19.374   6.458   # C1
  384 1     2 0.000000  11.526  19.374   6.458   # C2
  385 1     3 0.000000  12.221  18.524   7.308   # C3
  386 1     4 0.000000  11.759  17.956   7.876   # H1
  387 1     6 0.000000  16.377  20.198   5.634   # O2
  388 1     3 0.000000  13.611  20.224   5.608   # C3
  389 1     4 0.000000  14.073  20.792   5.040   # H1
  390 1     6 0.000000   9.455  20.198   5.634   # O2
  391 1     3 0.000000  12.221  20.224   5.608   # C3
  392 1     4 0.000000  11.759  20.792   5.040   # H1
  393 1     6 0.000000   9.455  18.550  18.550   # O2
  394 1     1 0.000000  10.041  19.374  19.374   # C1
  395 1     2 0.000000  11.526  19.374  19.374   # C2
  396 1     3 0.000000  12.221  18.524  18.524   # C3
  397 1     4 0.000000  11.759  17.956  17.956   # H1
  398 1     6 0.000000  16.377  18.550  18.550   # O2
  399 1     1 0.000000  15.791  19.374  19.374   # C1
  400 1     2 0.000000  14.306  19.374  19.374   # C2
  401 1     3 0.000000  13.611  18.524  18.524   # C3
  402 1     4 0.000000  14.073  17.956  17.956   # H1
  403 1     6 0.000000   9.455  20.198  20.198   # O2
  404 1     3 0.000000  12.221  20.224  20.224   # C3
  405 1     4 0.000000  11.759  20.792  20.792   # H1
  406 1     6 0.000000  16.377  20.198  20.198   # O2
  407 1     3 0.000000  13.611  20.224  20.224   # C3
  408 1     4 0.000000  14.073  20.792  20.792   # H1
  409 1     6 0.000000   9.455   7.282   7.282   # O2
  410 1     1 0.000000  10.041   6.458   6.458   # C1
  411 1     2 0.000000  11.526   6.458   6.458   # C2
  412 1     3 0.000000  12.221   7.308   7.308   # C3
  413 1     4 0.000000  11.759   7.876   7.876   # H1
  414 1     6 0.000000  16.377   7.282   7.282   # O2
  415 1     1 0.000000  15.791   6.458   6.458   # C1
  416 1     2 0.000000  14.306   6.458   6.458   # C2
  417 1     3 0.000000  13.611   7.308   7.308   # C3
  418 1     4 0.000000  14.073   7.876   7.876   # H1
  419 1     6 0.000000   9.455   5.634   5.634   # O2
  420 1     3 0.000000  12.221   5.608   5.608   # C3
  421 1     4 0.000000  11.759   5.040   5.040   # H1
  422 1     6 0.000000  16.377   5.634   5.634   # O2
  423 1     3 0.000000  13.611   5.608   5.608   # C3
  424 1     4 0.000000  14.073   5.040   5.040   # H1
 
 Bonds
 
    1     5    43    44   # C2-C3-H1  120.053
    2     5    44    45
    3     5    43    52   # C2-C3-H1  120.053
    4     5    52    53
    5     5    48    49   # C2-C3-H1  120.053
    6     5    49    50
    7     5    48    55   # C2-C3-H1  120.053
    8     5    55    56
    9     5    59    60   # C2-C3-H1  120.053
   10     5    60    61
   11     5    59    68   # C2-C3-H1  120.053
   12     5    68    69
   13     5    64    65   # C2-C3-H1  120.053
   14     5    65    66
   15     5    64    71   # C2-C3-H1  120.053
   16     5    71    72
   17     5    75    76   # C2-C3-H1  120.053
   18     5    76    77
   19     5    75    84   # C2-C3-H1  120.053
   20     5    84    85
   21     5    80    81   # C2-C3-H1  120.053
   22     5    81    82
   23     5    80    87   # C2-C3-H1  120.053
   24     5    87    88
   25     5    91    92   # C2-C3-H1  120.053
   26     5    92    93
   27     5    91   100   # C2-C3-H1  120.053
   28     5   100   101
   29     5    96    97   # C2-C3-H1  120.053
   30     5    97    98
   31     5    96   103   # C2-C3-H1  120.053
   32     5   103   104
   33     5   107   108   # C2-C3-H1  120.053
   34     5   108   109
   35     5   107   116   # C2-C3-H1  120.053
   36     5   116   117
   37     5   112   113   # C2-C3-H1  120.053
   38     5   113   114
   39     5   112   119   # C2-C3-H1  120.053
   40     5   119   120
   41     5   123   124   # C2-C3-H1  120.053
   42     5   124   125
   43     5   123   132   # C2-C3-H1  120.053
   44     5   132   133
   45     5   128   129   # C2-C3-H1  120.053
   46     5   129   130
   47     5   128   135   # C2-C3-H1  120.053
   48     5   135   136
   49     5   139   140   # C2-C3-H1  120.053
   50     5   140   141
   51     5   139   148   # C2-C3-H1  120.053
   52     5   148   149
   53     5   144   145   # C2-C3-H1  120.053
   54     5   145   146
   55     5   144   151   # C2-C3-H1  120.053
   56     5   151   152
   57     5   155   156   # C2-C3-H1  120.053
   58     5   156   157
   59     5   155   164   # C2-C3-H1  120.053
   60     5   164   165
   61     5   160   161   # C2-C3-H1  120.053
   62     5   161   162
   63     5   160   167   # C2-C3-H1  120.053
   64     5   167   168
   65     5   171   172   # C2-C3-H1  120.053
   66     5   172   173
   67     5   171   180   # C2-C3-H1  120.053
   68     5   180   181
   69     5   176   177   # C2-C3-H1  120.053
   70     5   177   178
   71     5   176   183   # C2-C3-H1  120.053
   72     5   183   184
   73     5   187   188   # C2-C3-H1  120.053
   74     5   188   189
   75     5   187   196   # C2-C3-H1  120.053
   76     5   196   197
   77     5   192   193   # C2-C3-H1  120.053
   78     5   193   194
   79     5   192   199   # C2-C3-H1  120.053
   80     5   199   200
   81     5   203   204   # C2-C3-H1  120.053
   82     5   204   205
   83     5   203   212   # C2-C3-H1  120.053
   84     5   212   213
   85     5   208   209   # C2-C3-H1  120.053
   86     5   209   210
   87     5   208   215   # C2-C3-H1  120.053
   88     5   215   216
   89     5   219   220   # C2-C3-H1  120.053
   90     5   220   221
   91     5   219   228   # C2-C3-H1  120.053
   92     5   228   229
   93     5   224   225   # C2-C3-H1  120.053
   94     5   225   226
   95     5   224   231   # C2-C3-H1  120.053
   96     5   231   232
   97     5   235   236   # C2-C3-H1  120.053
   98     5   236   237
   99     5   235   244   # C2-C3-H1  120.053
  100     5   244   245
  101     5   240   241   # C2-C3-H1  120.053
  102     5   241   242
  103     5   240   247   # C2-C3-H1  120.053
  104     5   247   248
  105     5   251   252   # C2-C3-H1  120.053
  106     5   252   253
  107     5   251   260   # C2-C3-H1  120.053
  108     5   260   261
  109     5   256   257   # C2-C3-H1  120.053
  110     5   257   258
  111     5   256   263   # C2-C3-H1  120.053
  112     5   263   264
  113     5   267   268   # C2-C3-H1  120.053
  114     5   268   269
  115     5   267   276   # C2-C3-H1  120.053
  116     5   276   277
  117     5   272   273   # C2-C3-H1  120.053
  118     5   273   274
  119     5   272   279   # C2-C3-H1  120.053
  120     5   279   280
  121     5   283   284   # C2-C3-H1  120.053
  122     5   284   285
  123     5   283   292   # C2-C3-H1  120.053
  124     5   292   293
  125     5   288   289   # C2-C3-H1  120.053
  126     5   289   290
  127     5   288   295   # C2-C3-H1  120.053
  128     5   295   296
  129     5   299   300   # C2-C3-H1  120.053
  130     5   300   301
  131     5   299   308   # C2-C3-H1  120.053
  132     5   308   309
  133     5   304   305   # C2-C3-H1  120.053
  134     5   305   306
  135     5   304   311   # C2-C3-H1  120.053
  136     5   311   312
  137     5   315   316   # C2-C3-H1  120.053
  138     5   316   317
  139     5   315   324   # C2-C3-H1  120.053
  140     5   324   325
  141     5   320   321   # C2-C3-H1  120.053
  142     5   321   322
  143     5   320   327   # C2-C3-H1  120.053
  144     5   327   328
  145     5   331   332   # C2-C3-H1  120.053
  146     5   332   333
  147     5   331   340   # C2-C3-H1  120.053
  148     5   340   341
  149     5   336   337   # C2-C3-H1  120.053
  150     5   337   338
  151     5   336   343   # C2-C3-H1  120.053
  152     5   343   344
  153     5   347   348   # C2-C3-H1  120.053
  154     5   348   349
  155     5   347   356   # C2-C3-H1  120.053
  156     5   356   357
  157     5   352   353   # C2-C3-H1  120.053
  158     5   353   354
  159     5   352   359   # C2-C3-H1  120.053
  160     5   359   360
  161     5   363   364   # C2-C3-H1  120.053
  162     5   364   365
  163     5   363   372   # C2-C3-H1  120.053
  164     5   372   373
  165     5   368   369   # C2-C3-H1  120.053
  166     5   369   370
  167     5   368   375   # C2-C3-H1  120.053
  168     5   375   376
  169     5   379   380   # C2-C3-H1  120.053
  170     5   380   381
  171     5   379   388   # C2-C3-H1  120.053
  172     5   388   389
  173     5   384   385   # C2-C3-H1  120.053
  174     5   385   386
  175     5   384   391   # C2-C3-H1  120.053
  176     5   391   392
  177     5   395   396   # C2-C3-H1  120.053
  178     5   396   397
  179     5   395   404   # C2-C3-H1  120.053
  180     5   404   405
  181     5   400   401   # C2-C3-H1  120.053
  182     5   401   402
  183     5   400   407   # C2-C3-H1  120.053
  184     5   407   408
  185     5   411   412   # C2-C3-H1  120.053
  186     5   412   413
  187     5   411   420   # C2-C3-H1  120.053
  188     5   420   421
  189     5   416   417   # C2-C3-H1  120.053