LAMMPS data file generated by pbc_datagen
       424 atoms
       576 bonds
         0 angles
         0 dihedrals
         0 impropers
         7 atom types
         1 bond types
         0 angle types
         0 dihedral types
         0 improper types
 
    0.000    25.832           xlo xhi
    0.000    25.832           ylo yhi
    0.000    25.832           zlo zhi
    0.000     0.000     0.000 xy xz yz
 
 Atoms
 
    1 1     7 0.000000   7.579   5.337   5.337   # Zn1
    2 1     5 0.000000   6.458   6.458   6.458   # O1
    3 1     7 0.000000   5.337   7.579   5.337   # Zn1
    4 1     7 0.000000   5.337   5.337   7.579   # Zn1
    5 1     7 0.000000   7.579   7.579   7.579   # Zn1
    6 1     7 0.000000  18.253  20.495   5.337   # Zn1
    7 1     5 0.000000  19.374  19.374   6.458   # O1
    8 1     7 0.000000  20.495  18.253   5.337   # Zn1
    9 1     7 0.000000  20.495  20.495   7.579   # Zn1
   10 1     7 0.000000  18.253  18.253   7.579   # Zn1
   11 1     7 0.000000  18.253   5.337  20.495   # Zn1
   12 1     5 0.000000  19.374   6.458  19.374   # O1
   13 1     7 0.000000  20.495   7.579  20.495   # Zn1
   14 1     7 0.000000  20.495   5.337  18.253   # Zn1
   15 1     7 0.000000  18.253   7.579  18.253   # Zn1
   16 1     7 0.000000   7.579  20.495  20.495   # Zn1
   17 1     5 0.000000   6.458  19.374  19.374   # O1
   18 1     7 0.000000   5.337  18.253  20.495   # Zn1
   19 1     7 0.000000   5.337  20.495  18.253   # Zn1
   20 1     7 0.000000   7.579  18.253  18.253   # Zn1
   21 1     7 0.000000   5.337   7.579  20.495   # Zn1
   22 1     5 0.000000   6.458   6.458  19.374   # O1
   23 1     7 0.000000   7.579   5.337  20.495   # Zn1
   24 1     7 0.000000   5.337   5.337  18.253   # Zn1
   25 1     7 0.000000   7.579   7.579  18.253   # Zn1
   26 1     7 0.000000  20.495  18.253  20.495   # Zn1
   27 1     5 0.000000  19.374  19.374  19.374   # O1
   28 1     7 0.000000  18.253  20.495  20.495   # Zn1
   29 1     7 0.000000  20.495  20.495  18.253   # Zn1
   30 1     7 0.000000  18.253  18.253  18.253   # Zn1
   31 1     7 0.000000   5.337  18.253   5.337   # Zn1
   32 1     5 0.000000   6.458  19.374   6.458   # O1
   33 1     7 0.000000   7.579  20.495   5.337   # Zn1
   34 1     7 0.000000   5.337  20.495   7.579   # Zn1
   35 1     7 0.000000   7.579  18.253   7.579   # Zn1
   36 1     7 0.000000  20.495   7.579   5.337   # Zn1
   37 1     5 0.000000  19.374   6.458   6.458   # O1
   38 1     7 0.000000  18.253   5.337   5.337   # Zn1
   39 1     7 0.000000  20.495   5.337   7.579   # Zn1
   40 1     7 0.000000  18.253   7.579   7.579   # Zn1
   41 1     6 0.000000   7.282   5.634  29.293   # O2
   42 1     1 0.000000   6.458   6.458  28.707   # C1
   43 1     2 0.000000   6.458   6.458  27.222   # C2
   44 1     3 0.000000   7.308   5.608  26.527   # C3
   45 1     4 0.000000   7.876   5.040  26.989   # H1
   46 1     6 0.000000   7.282   5.634  22.371   # O2
   47 1     1 0.000000   6.458   6.458  22.957   # C1
   48 1     2 0.000000   6.458   6.458  24.442   # C2
   49 1     3 0.000000   7.308   5.608  25.137   # C3
   50 1     4 0.000000   7.876   5.040  24.675   # H1
   51 1     6 0.000000   5.634   7.282  29.293   # O2
   52 1     3 0.000000   5.608   7.308  26.527   # C3
   53 1     4 0.000000   5.040   7.876  26.989   # H1
   54 1     6 0.000000   5.634   7.282  22.371   # O2
   55 1     3 0.000000   5.608   7.308  25.137   # C3
   56 1     4 0.000000   5.040   7.876  24.675   # H1
   57 1     6 0.000000  18.550  20.198  29.293   # O2
   58 1     1 0.000000  19.374  19.374  28.707   # C1
   59 1     2 0.000000  19.374  19.374  27.222   # C2
   60 1     3 0.000000  18.524  20.224  26.527   # C3
   61 1     4 0.000000  17.956  20.792  26.989   # H1
   62 1     6 0.000000  18.550  20.198  22.371   # O2
   63 1     1 0.000000  19.374  19.374  22.957   # C1
   64 1     2 0.000000  19.374  19.374  24.442   # C2
   65 1     3 0.000000  18.524  20.224  25.137   # C3
   66 1     4 0.000000  17.956  20.792  24.675   # H1
   67 1     6 0.000000  20.198  18.550  29.293   # O2
   68 1     3 0.000000  20.224  18.524  26.527   # C3
   69 1     4 0.000000  20.792  17.956  26.989   # H1
   70 1     6 0.000000  20.198  18.550  22.371   # O2
   71 1     3 0.000000  20.224  18.524  25.137   # C3
   72 1     4 0.000000  20.792  17.956  24.675   # H1
   73 1     6 0.000000  18.550   5.634  22.371   # O2
   74 1     1 0.000000  19.374   6.458  22.957   # C1
   75 1     2 0.000000  19.374   6.458  24.442   # C2
   76 1     3 0.000000  18.524   5.608  25.137   # C3
   77 1     4 0.000000  17.956   5.040  24.675   # H1
   78 1     6 0.000000  18.550   5.634  29.293   # O2
   79 1     1 0.000000  19.374   6.458  28.707   # C1
   80 1     2 0.000000  19.374   6.458  27.222   # C2
   81 1     3 0.000000  18.524   5.608  26.527   # C3
   82 1     4 0.000000  17.956   5.040  26.989   # H1
   83 1     6 0.000000  20.198   7.282  22.371   # O2
   84 1     3 0.000000  20.224   7.308  25.137   # C3
   85 1     4 0.000000  20.792   7.876  24.675   # H1
   86 1     6 0.000000  20.198   7.282  29.293   # O2
   87 1     3 0.000000  20.224   7.308  26.527   # C3
   88 1     4 0.000000  20.792   7.876  26.989   # H1
   89 1     6 0.000000   7.282  20.198  22.371   # O2
   90 1     1 0.000000   6.458  19.374  22.957   # C1
   91 1     2 0.000000   6.458  19.374  24.442   # C2
   92 1     3 0.000000   7.308  20.224  25.137   # C3
   93 1     4 0.000000   7.876  20.792  24.675   # H1
   94 1     6 0.000000   7.282  20.198  29.293   # O2
   95 1     1 0.000000   6.458  19.374  28.707   # C1
   96 1     2 0.000000   6.458  19.374  27.222   # C2
   97 1     3 0.000000   7.308  20.224  26.527   # C3
   98 1     4 0.000000   7.876  20.792  26.989   # H1
   99 1     6 0.000000   5.634  18.550  22.371   # O2
  100 1     3 0.000000   5.608  18.524  25.137   # C3
  101 1     4 0.000000   5.040  17.956  24.675   # H1
  102 1     6 0.000000   5.634  18.550  29.293   # O2
  103 1     3 0.000000   5.608  18.524  26.527   # C3
  104 1     4 0.000000   5.040  17.956  26.989   # H1
  105 1     6 0.000000  29.293   7.282   5.634   # O2
  106 1     1 0.000000  28.707   6.458   6.458   # C1
  107 1     2 0.000000  27.222   6.458   6.458   # C2
  108 1     3 0.000000  26.527   7.308   5.608   # C3
  109 1     4 0.000000  26.989   7.876   5.040   # H1
  110 1     6 0.000000  22.371   7.282   5.634   # O2
  111 1     1 0.000000  22.957   6.458   6.458   # C1
  112 1     2 0.000000  24.442   6.458   6.458   # C2
  113 1     3 0.000000  25.137   7.308   5.608   # C3
  114 1     4 0.000000  24.675   7.876   5.040   # H1
  115 1     6 0.000000  29.293   5.634   7.282   # O2
  116 1     3 0.000000  26.527   5.608   7.308   # C3
  117 1     4 0.000000  26.989   5.040   7.876   # H1
  118 1     6 0.000000  22.371   5.634   7.282   # O2
  119 1     3 0.000000  25.137   5.608   7.308   # C3
  120 1     4 0.000000  24.675   5.040   7.876   # H1
  121 1     6 0.000000  29.293  18.550  20.198   # O2
  122 1     1 0.000000  28.707  19.374  19.374   # C1
  123 1     2 0.000000  27.222  19.374  19.374   # C2
  124 1     3 0.000000  26.527  18.524  20.224   # C3
  125 1     4 0.000000  26.989  17.956  20.792   # H1
  126 1     6 0.000000  22.371  18.550  20.198   # O2
  127 1     1 0.000000  22.957  19.374  19.374   # C1
  128 1     2 0.000000  24.442  19.374  19.374   # C2
  129 1     3 0.000000  25.137  18.524  20.224   # C3
  130 1     4 0.000000  24.675  17.956  20.792   # H1
  131 1     6 0.000000  29.293  20.198  18.550   # O2
  132 1     3 0.000000  26.527  20.224  18.524   # C3
  133 1     4 0.000000  26.989  20.792  17.956   # H1
  134 1     6 0.000000  22.371  20.198  18.550   # O2
  135 1     3 0.000000  25.137  20.224  18.524   # C3
  136 1     4 0.000000  24.675  20.792  17.956   # H1
  137 1     6 0.000000  22.371  18.550   5.634   # O2
  138 1     1 0.000000  22.957  19.374   6.458   # C1
  139 1     2 0.000000  24.442  19.374   6.458   # C2
  140 1     3 0.000000  25.137  18.524   5.608   # C3
  141 1     4 0.000000  24.675  17.956   5.040   # H1
  142 1     6 0.000000  29.293  18.550   5.634   # O2
  143 1     1 0.000000  28.707  19.374   6.458   # C1
  144 1     2 0.000000  27.222  19.374   6.458   # C2
  145 1     3 0.000000  26.527  18.524   5.608   # C3
  146 1     4 0.000000  26.989  17.956   5.040   # H1
  147 1     6 0.000000  22.371  20.198   7.282   # O2
  148 1     3 0.000000  25.137  20.224   7.308   # C3
  149 1     4 0.000000  24.675  20.792   7.876   # H1
  150 1     6 0.000000  29.293  20.198   7.282   # O2
  151 1     3 0.000000  26.527  20.224   7.308   # C3
  152 1     4 0.000000  26.989  20.792   7.876   # H1
  153 1     6 0.000000  22.371   7.282  20.198   # O2
  154 1     1 0.000000  22.957   6.458  19.374   # C1
  155 1     2 0.000000  24.442   6.458  19.374   # C2
  156 1     3 0.000000  25.137   7.308  20.224   # C3
  157 1     4 0.000000  24.675   7.876  20.792   # H1
  158 1     6 0.000000  29.293   7.282  20.198   # O2
  159 1     1 0.000000  28.707   6.458  19.374   # C1
  160 1     2 0.000000  27.222   6.458  19.374   # C2
  161 1     3 0.000000  26.527   7.308  20.224   # C3
  162 1     4 0.000000  26.989   7.876  20.792   # H1
  163 1     6 0.000000  22.371   5.634  18.550   # O2
  164 1     3 0.000000  25.137   5.608  18.524   # C3
  165 1     4 0.000000  24.675   5.040  17.956   # H1
  166 1     6 0.000000  29.293   5.634  18.550   # O2
  167 1     3 0.000000  26.527   5.608  18.524   # C3
  168 1     4 0.000000  26.989   5.040  17.956   # H1
  169 1     6 0.000000   5.634  29.293   7.282   # O2
  170 1     1 0.000000   6.458  28.707   6.458   # C1
  171 1     2 0.000000   6.458  27.222   6.458   # C2
  172 1     3 0.000000   5.608  26.527   7.308   # C3
  173 1     4 0.000000   5.040  26.989   7.876   # H1
  174 1     6 0.000000   5.634  22.371   7.282   # O2
  175 1     1 0.000000   6.458  22.957   6.458   # C1
  176 1     2 0.000000   6.458  24.442   6.458   # C2
  177 1     3 0.000000   5.608  25.137   7.308   # C3
  178 1     4 0.000000   5.040  24.675   7.876   # H1
  179 1     6 0.000000   7.282  29.293   5.634   # O2
  180 1     3 0.000000   7.308  26.527   5.608   # C3
  181 1     4 0.000000   7.876  26.989   5.040   # H1
  182 1     6 0.000000   7.282  22.371   5.634   # O2
  183 1     3 0.000000   7.308  25.137   5.608   # C3
  184 1     4 0.000000   7.876  24.675   5.040   # H1
  185 1     6 0.000000  20.198  29.293  18.550   # O2
  186 1     1 0.000000  19.374  28.707  19.374   # C1
  187 1     2 0.000000  19.374  27.222  19.374   # C2
  188 1     3 0.000000  20.224  26.527  18.524   # C3
  189 1     4 0.000000  20.792  26.989  17.956   # H1
  190 1     6 0.000000  20.198  22.371  18.550   # O2
  191 1     1 0.000000  19.374  22.957  19.374   # C1
  192 1     2 0.000000  19.374  24.442  19.374   # C2
  193 1     3 0.000000  20.224  25.137  18.524   # C3
  194 1     4 0.000000  20.792  24.675  17.956   # H1
  195 1     6 0.000000  18.550  29.293  20.198   # O2
  196 1     3 0.000000  18.524  26.527  20.224   # C3
  197 1     4 0.000000  17.956  26.989  20.792   # H1
  198 1     6 0.000000  18.550  22.371  20.198   # O2
  199 1     3 0.000000  18.524  25.137  20.224   # C3
  200 1     4 0.000000  17.956  24.675  20.792   # H1
  201 1     6 0.000000   5.634  22.371  18.550   # O2
  202 1     1 0.000000   6.458  22.957  19.374   # C1
  203 1     2 0.000000   6.458  24.442  19.374   # C2
  204 1     3 0.000000   5.608  25.137  18.524   # C3
  205 1     4 0.000000   5.040  24.675  17.956   # H1
  206 1     6 0.000000   5.634  29.293  18.550   # O2
  207 1     1 0.000000   6.458  28.707  19.374   # C1
  208 1     2 0.000000   6.458  27.222  19.374   # C2
  209 1     3 0.000000   5.608  26.527  18.524   # C3
  210 1     4 0.000000   5.040  26.989  17.956   # H1
  211 1     6 0.000000   7.282  22.371  20.198   # O2
  212 1     3 0.000000   7.308  25.137  20.224   # C3
  213 1     4 0.000000   7.876  24.675  20.792   # H1
  214 1     6 0.000000   7.282  29.293  20.198   # O2
  215 1     3 0.000000   7.308  26.527  20.224   # C3
  216 1     4 0.000000   7.876  26.989  20.792   # H1
  217 1     6 0.000000  20.198  22.371   7.282   # O2
  218 1     1 0.000000  19.374  22.957   6.458   # C1
  219 1     2 0.000000  19.374  24.442   6.458   # C2
  220 1     3 0.000000  20.224  25.137   7.308   # C3
  221 1     4 0.000000  20.792  24.675   7.876   # H1
  222 1     6 0.000000  20.198  29.293   7.282   # O2
  223 1     1 0.000000  19.374  28.707   6.458   # C1
  224 1     2 0.000000  19.374  27.222   6.458   # C2
  225 1     3 0.000000  20.224  26.527   7.308   # C3
  226 1     4 0.000000  20.792  26.989   7.876   # H1
  227 1     6 0.000000  18.550  22.371   5.634   # O2
  228 1     3 0.000000  18.524  25.137   5.608   # C3
  229 1     4 0.000000  17.956  24.675   5.040   # H1
  230 1     6 0.000000  18.550  29.293   5.634   # O2
  231 1     3 0.000000  18.524  26.527   5.608   # C3
  232 1     4 0.000000  17.956  26.989   5.040   # H1
  233 1     6 0.000000   7.282  18.550  16.377   # O2
  234 1     1 0.000000   6.458  19.374  15.791   # C1
  235 1     2 0.000000   6.458  19.374  14.306   # C2
  236 1     3 0.000000   7.308  18.524  13.611   # C3
  237 1     4 0.000000   7.876  17.956  14.073   # H1
  238 1     6 0.000000   7.282  18.550   9.455   # O2
  239 1     1 0.000000   6.458  19.374  10.041   # C1
  240 1     2 0.000000   6.458  19.374  11.526   # C2
  241 1     3 0.000000   7.308  18.524  12.221   # C3
  242 1     4 0.000000   7.876  17.956  11.759   # H1
  243 1     6 0.000000   5.634  20.198  16.377   # O2
  244 1     3 0.000000   5.608  20.224  13.611   # C3
  245 1     4 0.000000   5.040  20.792  14.073   # H1
  246 1     6 0.000000   5.634  20.198   9.455   # O2
  247 1     3 0.000000   5.608  20.224  12.221   # C3
  248 1     4 0.000000   5.040  20.792  11.759   # H1
  249 1     6 0.000000  18.550   7.282  16.377   # O2
  250 1     1 0.000000  19.374   6.458  15.791   # C1
  251 1     2 0.000000  19.374   6.458  14.306   # C2
  252 1     3 0.000000  18.524   7.308  13.611   # C3
  253 1     4 0.000000  17.956   7.876  14.073   # H1
  254 1     6 0.000000  18.550   7.282   9.455   # O2
  255 1     1 0.000000  19.374   6.458  10.041   # C1
  256 1     2 0.000000  19.374   6.458  11.526   # C2
  257 1     3 0.000000  18.524   7.308  12.221   # C3
  258 1     4 0.000000  17.956   7.876  11.759   # H1
  259 1     6 0.000000  20.198   5.634  16.377   # O2
  260 1     3 0.000000  20.224   5.608  13.611   # C3
  261 1     4 0.000000  20.792   5.040  14.073   # H1
  262 1     6 0.000000  20.198   5.634   9.455   # O2
  263 1     3 0.000000  20.224   5.608  12.221   # C3
  264 1     4 0.000000  20.792   5.040  11.759   # H1
  265 1     6 0.000000  18.550  18.550   9.455   # O2
  266 1     1 0.000000  19.374  19.374  10.041   # C1
  267 1     2 0.000000  19.374  19.374  11.526   # C2
  268 1     3 0.000000  18.524  18.524  12.221   # C3
  269 1     4 0.000000  17.956  17.956  11.759   # H1
  270 1     6 0.000000  18.550  18.550  16.377   # O2
  271 1     1 0.000000  19.374  19.374  15.791   # C1
  272 1     2 0.000000  19.374  19.374  14.306   # C2
  273 1     3 0.000000  18.524  18.524  13.611   # C3
  274 1     4 0.000000  17.956  17.956  14.073   # H1
  275 1     6 0.000000  20.198  20.198   9.455   # O2
  276 1     3 0.000000  20.224  20.224  12.221   # C3
  277 1     4 0.000000  20.792  20.792  11.759   # H1
  278 1     6 0.000000  20.198  20.198  16.377   # O2
  279 1     3 0.000000  20.224  20.224  13.611   # C3
  280 1     4 0.000000  20.792  20.792  14.073   # H1
  281 1     6 0.000000   7.282   7.282   9.455   # O2
  282 1     1 0.000000   6.458   6.458  10.041   # C1
  283 1     2 0.000000   6.458   6.458  11.526   # C2
  284 1     3 0.000000   7.308   7.308  12.221   # C3
  285 1     4 0.000000   7.876   7.876  11.759   # H1
  286 1     6 0.000000   7.282   7.282  16.377   # O2
  287 1     1 0.000000   6.458   6.458  15.791   # C1
  288 1     2 0.000000   6.458   6.458  14.306   # C2
  289 1     3 0.000000   7.308   7.308  13.611   # C3
  290 1     4 0.000000   7.876   7.876  14.073   # H1
  291 1     6 0.000000   5.634   5.634   9.455   # O2
  292 1     3 0.000000   5.608   5.608  12.221   # C3
  293 1     4 0.000000   5.040   5.040  11.759   # H1
  294 1     6 0.000000   5.634   5.634  16.377   # O2
  295 1     3 0.000000   5.608   5.608  13.611   # C3
  296 1     4 0.000000   5.040   5.040  14.073   # H1
  297 1     6 0.000000   5.634  16.377  20.198   # O2
  298 1     1 0.000000   6.458  15.791  19.374   # C1
  299 1     2 0.000000   6.458  14.306  19.374   # C2
  300 1     3 0.000000   5.608  13.611  20.224   # C3
  301 1     4 0.000000   5.040  14.073  20.792   # H1
  302 1     6 0.000000   5.634   9.455  20.198   # O2
  303 1     1 0.000000   6.458  10.041  19.374   # C1
  304 1     2 0.000000   6.458  11.526  19.374   # C2
  305 1     3 0.000000   5.608  12.221  20.224   # C3
  306 1     4 0.000000   5.040  11.759  20.792   # H1
  307 1     6 0.000000   7.282  16.377  18.550   # O2
  308 1     3 0.000000   7.308  13.611  18.524   # C3
  309 1     4 0.000000   7.876  14.073  17.956   # H1
  310 1     6 0.000000   7.282   9.455  18.550   # O2
  311 1     3 0.000000   7.308  12.221  18.524   # C3
  312 1     4 0.000000   7.876  11.759  17.956   # H1
  313 1     6 0.000000  20.198  16.377   5.634   # O2
  314 1     1 0.000000  19.374  15.791   6.458   # C1
  315 1     2 0.000000  19.374  14.306   6.458   # C2
  316 1     3 0.000000  20.224  13.611   5.608   # C3
  317 1     4 0.000000  20.792  14.073   5.040   # H1
  318 1     6 0.000000  20.198   9.455   5.634   # O2
  319 1     1 0.000000  19.374  10.041   6.458   # C1
  320 1     2 0.000000  19.374  11.526   6.458   # C2
  321 1     3 0.000000  20.224  12.221   5.608   # C3
  322 1     4 0.000000  20.792  11.759   5.040   # H1
  323 1     6 0.000000  18.550  16.377   7.282   # O2
  324 1     3 0.000000  18.524  13.611   7.308   # C3
  325 1     4 0.000000  17.956  14.073   7.876   # H1
  326 1     6 0.000000  18.550   9.455   7.282   # O2
  327 1     3 0.000000  18.524  12.221   7.308   # C3
  328 1     4 0.000000  17.956  11.759   7.876   # H1
  329 1     6 0.000000   5.634   9.455   5.634   # O2
  330 1     1 0.000000   6.458  10.041   6.458   # C1
  331 1     2 0.000000   6.458  11.526   6.458   # C2
  332 1     3 0.000000   5.608  12.221   5.608   # C3
  333 1     4 0.000000   5.040  11.759   5.040   # H1
  334 1     6 0.000000   5.634  16.377   5.634   # O2
  335 1     1 0.000000   6.458  15.791   6.458   # C1
  336 1     2 0.000000   6.458  14.306   6.458   # C2
  337 1     3 0.000000   5.608  13.611   5.608   # C3
  338 1     4 0.000000   5.040  14.073   5.040   # H1
  339 1     6 0.000000   7.282   9.455   7.282   # O2
  340 1     3 0.000000   7.308  12.221   7.308   # C3
  341 1     4 0.000000   7.876  11.759   7.876   # H1
  342 1     6 0.000000   7.282  16.377   7.282   # O2
  343 1     3 0.000000   7.308  13.611   7.308   # C3
  344 1     4 0.000000   7.876  14.073   7.876   # H1
  345 1     6 0.000000  20.198   9.455  20.198   # O2
  346 1     1 0.000000  19.374  10.041  19.374   # C1
  347 1     2 0.000000  19.374  11.526  19.374   # C2
  348 1     3 0.000000  20.224  12.221  20.224   # C3
  349 1     4 0.000000  20.792  11.759  20.792   # H1
  350 1     6 0.000000  20.198  16.377  20.198   # O2
  351 1     1 0.000000  19.374  15.791  19.374   # C1
  352 1     2 0.000000  19.374  14.306  19.374   # C2
  353 1     3 0.000000  20.224  13.611  20.224   # C3
  354 1     4 0.000000  20.792  14.073  20.792   # H1
  355 1     6 0.000000  18.550   9.455  18.550   # O2
  356 1     3 0.000000  18.524  12.221  18.524   # C3
  357 1     4 0.000000  17.956  11.759  17.956   # H1
  358 1     6 0.000000  18.550  16.377  18.550   # O2
  359 1     3 0.000000  18.524  13.611  18.524   # C3
  360 1     4 0.000000  17.956  14.073  17.956   # H1
  361 1     6 0.000000  16.377   7.282  18.550   # O2
  362 1     1 0.000000  15.791   6.458  19.374   # C1
  363 1     2 0.000000  14.306   6.458  19.374   # C2
  364 1     3 0.000000  13.611   7.308  18.524   # C3
  365 1     4 0.000000  14.073   7.876  17.956   # H1
  366 1     6 0.000000   9.455   7.282  18.550   # O2
  367 1     1 0.000000  10.041   6.458  19.374   # C1
  368 1     2 0.000000  11.526   6.458  19.374   # C2
  369 1     3 0.000000  12.221   7.308  18.524   # C3
  370 1     4 0.000000  11.759   7.876  17.956   # H1
  371 1     6 0.000000  16.377   5.634  20.198   # O2
  372 1     3 0.000000  13.611   5.608  20.224   # C3
  373 1     4 0.000000  14.073   5.040  20.792   # H1
  374 1     6 0.000000   9.455   5.634  20.198   # O2
  375 1     3 0.000000  12.221   5.608  20.224   # C3
  376 1     4 0.000000  11.759   5.040  20.792   # H1
  377 1     6 0.000000  16.377  18.550   7.282   # O2
  378 1     1 0.000000  15.791  19.374   6.458   # C1
  379 1     2 0.000000  14.306  19.374   6.458   # C2
  380 1     3 0.000000  13.611  18.524   7.308   # C3
  381 1     4 0.000000  14.073  17.956   7.876   # H1
  382 1     6 0.000000   9.455  18.550   7.282   # O2
  383 1     1 0.000000  10.041  19.374   6.458   # C1
  384 1     2 0.000000  11.526  19.374   6.458   # C2
  385 1     3 0.000000  12.221  18.524   7.308   # C3
  386 1     4 0.000000  11.759  17.956   7.876   # H1
  387 1     6 0.000000  16.377  20.198   5.634   # O2
  388 1     3 0.000000  13.611  20.224   5.608   # C3
  389 1     4 0.000000  14.073  20.792   5.040   # H1
  390 1     6 0.000000   9.455  20.198   5.634   # O2
  391 1     3 0.000000  12.221  20.224   5.608   # C3
  392 1     4 0.000000  11.759  20.792   5.040   # H1
  393 1     6 0.000000   9.455  18.550  18.550   # O2
  394 1     1 0.000000  10.041  19.374  19.374   # C1
  395 1     2 0.000000  11.526  19.374  19.374   # C2
  396 1     3 0.000000  12.221  18.524  18.524   # C3
  397 1     4 0.000000  11.759  17.956  17.956   # H1
  398 1     6 0.000000  16.377  18.550  18.550   # O2
  399 1     1 0.000000  15.791  19.374  19.374   # C1
  400 1     2 0.000000  14.306  19.374  19.374   # C2
  401 1     3 0.000000  13.611  18.524  18.524   # C3
  402 1     4 0.000000  14.073  17.956  17.956   # H1
  403 1     6 0.000000   9.455  20.198  20.198   # O2
  404 1     3 0.000000  12.221  20.224  20.224   # C3
  405 1     4 0.000000  11.759  20.792  20.792   # H1
  406 1     6 0.000000  16.377  20.198  20.198   # O2
  407 1     3 0.000000  13.611  20.224  20.224   # C3
  408 1     4 0.000000  14.073  20.792  20.792   # H1
  409 1     6 0.000000   9.455   7.282   7.282   # O2
  410 1     1 0.000000  10.041   6.458   6.458   # C1
  411 1     2 0.000000  11.526   6.458   6.458   # C2
  412 1     3 0.000000  12.221   7.308   7.308   # C3
  413 1     4 0.000000  11.759   7.876   7.876   # H1
  414 1     6 0.000000  16.377   7.282   7.282   # O2
  415 1     1 0.000000  15.791   6.458   6.458   # C1
  416 1     2 0.000000  14.306   6.458   6.458   # C2
  417 1     3 0.000000  13.611   7.308   7.308   # C3
  418 1     4 0.000000  14.073   7.876   7.876   # H1
  419 1     6 0.000000   9.455   5.634   5.634   # O2
  420 1     3 0.000000  12.221   5.608   5.608   # C3
  421 1     4 0.000000  11.759   5.040   5.040   # H1
  422 1     6 0.000000  16.377   5.634   5.634   # O2
  423 1     3 0.000000  13.611   5.608   5.608   # C3
  424 1     4 0.000000  14.073   5.040   5.040   # H1
 
 Bonds
 
    1     2    41     1   # O2-Zn1-O1-Zn1  120.000
    2     2     1     2
    3     2     2     4
    4     2    41     1   # O2-Zn1-O1-Zn1  120.000
    5     2     1     2
    6     2     2     5
    7     2   179     1   # O2-Zn1-O1-Zn1  120.000
    8     2     1     2
    9     2     2     3
   10     2   179     1   # O2-Zn1-O1-Zn1  120.000
   11     2     1     2
   12     2     2     5
   13     2   419     1   # O2-Zn1-O1-Zn1  120.000
   14     2     1     2
   15     2     2     3
   16     2   419     1   # O2-Zn1-O1-Zn1  120.000
   17     2     1     2
   18     2     2     4
   19     2     1     2   # Zn1-O1-Zn1-O2  120.000
   20     2     2     3
   21     2     3   105
   22     2     1     2   # Zn1-O1-Zn1-O2  120.000
   23     2     2     3
   24     2     3   329
   25     2     1     2   # Zn1-O1-Zn1-O2  120.000
   26     2     2     4
   27     2     4   115
   28     2     1     2   # Zn1-O1-Zn1-O2  120.000
   29     2     2     4
   30     2     4   291
   31     2     1     2   # Zn1-O1-Zn1-O2  120.000
   32     2     2     5
   33     2     5   281
   34     2     1     2   # Zn1-O1-Zn1-O2  120.000
   35     2     2     5
   36     2     5   339
   37     2     4     2   # Zn1-O1-Zn1-O2  120.000
   38     2     2     3
   39     2     3    51
   40     2     4     2   # Zn1-O1-Zn1-O2  120.000
   41     2     2     3
   42     2     3   329
   43     2     3     2   # Zn1-O1-Zn1-O2  120.000
   44     2     2     4
   45     2     4   169
   46     2     3     2   # Zn1-O1-Zn1-O2  120.000
   47     2     2     4
   48     2     4   291
   49     2     5     2   # Zn1-O1-Zn1-O2  120.000
   50     2     2     3
   51     2     3    51
   52     2     5     2   # Zn1-O1-Zn1-O2  120.000
   53     2     2     3
   54     2     3   105
   55     2     3     2   # Zn1-O1-Zn1-O2  120.000
   56     2     2     5
   57     2     5   281
   58     2     3     2   # Zn1-O1-Zn1-O2  120.000
   59     2     2     5
   60     2     5   409
   61     2     5     2   # Zn1-O1-Zn1-O2  120.000
   62     2     2     4
   63     2     4   115
   64     2     5     2   # Zn1-O1-Zn1-O2  120.000
   65     2     2     4
   66     2     4   169
   67     2     4     2   # Zn1-O1-Zn1-O2  120.000
   68     2     2     5
   69     2     5   339
   70     2     4     2   # Zn1-O1-Zn1-O2  120.000
   71     2     2     5
   72     2     5   409
   73     2    57     6   # O2-Zn1-O1-Zn1  120.000
   74     2     6     7
   75     2     7     9
   76     2    57     6   # O2-Zn1-O1-Zn1  120.000
   77     2     6     7
   78     2     7    10
   79     2   227     6   # O2-Zn1-O1-Zn1  120.000
   80     2     6     7
   81     2     7     8
   82     2   227     6   # O2-Zn1-O1-Zn1  120.000
   83     2     6     7
   84     2     7    10
   85     2   387     6   # O2-Zn1-O1-Zn1  120.000
   86     2     6     7
   87     2     7     8
   88     2   387     6   # O2-Zn1-O1-Zn1  120.000
   89     2     6     7
   90     2     7     9
   91     2     6     7   # Zn1-O1-Zn1-O2  120.000
   92     2     7     8
   93     2     8   137
   94     2     6     7   # Zn1-O1-Zn1-O2  120.000
   95     2     7     8
   96     2     8   313
   97     2     6     7   # Zn1-O1-Zn1-O2  120.000
   98     2     7     9
   99     2     9   147
  100     2     6     7   # Zn1-O1-Zn1-O2  120.000
  101     2     7     9
  102     2     9   275
  103     2     6     7   # Zn1-O1-Zn1-O2  120.000
  104     2     7    10
  105     2    10   265
  106     2     6     7   # Zn1-O1-Zn1-O2  120.000
  107     2     7    10
  108     2    10   323
  109     2     9     7   # Zn1-O1-Zn1-O2  120.000
  110     2     7     8
  111     2     8    67
  112     2     9     7   # Zn1-O1-Zn1-O2  120.000
  113     2     7     8
  114     2     8   313
  115     2     8     7   # Zn1-O1-Zn1-O2  120.000
  116     2     7     9
  117     2     9   217
  118     2     8     7   # Zn1-O1-Zn1-O2  120.000
  119     2     7     9
  120     2     9   275
  121     2    10     7   # Zn1-O1-Zn1-O2  120.000
  122     2     7     8
  123     2     8    67
  124     2    10     7   # Zn1-O1-Zn1-O2  120.000
  125     2     7     8
  126     2     8   137
  127     2     8     7   # Zn1-O1-Zn1-O2  120.000
  128     2     7    10
  129     2    10   265
  130     2     8     7   # Zn1-O1-Zn1-O2  120.000
  131     2     7    10
  132     2    10   377
  133     2    10     7   # Zn1-O1-Zn1-O2  120.000
  134     2     7     9
  135     2     9   147
  136     2    10     7   # Zn1-O1-Zn1-O2  120.000
  137     2     7     9
  138     2     9   217
  139     2     9     7   # Zn1-O1-Zn1-O2  120.000
  140     2     7    10
  141     2    10   323
  142     2     9     7   # Zn1-O1-Zn1-O2  120.000
  143     2     7    10
  144     2    10   377
  145     2    73    11   # O2-Zn1-O1-Zn1  120.000
  146     2    11    12
  147     2    12    14
  148     2    73    11   # O2-Zn1-O1-Zn1  120.000
  149     2    11    12
  150     2    12    15
  151     2   195    11   # O2-Zn1-O1-Zn1  120.000
  152     2    11    12
  153     2    12    13
  154     2   195    11   # O2-Zn1-O1-Zn1  120.000
  155     2    11    12
  156     2    12    15
  157     2   371    11   # O2-Zn1-O1-Zn1  120.000
  158     2    11    12
  159     2    12    13
  160     2   371    11   # O2-Zn1-O1-Zn1  120.000
  161     2    11    12
  162     2    12    14
  163     2    11    12   # Zn1-O1-Zn1-O2  120.000
  164     2    12    13
  165     2    13   153
  166     2    11    12   # Zn1-O1-Zn1-O2  120.000
  167     2    12    13
  168     2    13   345
  169     2    11    12   # Zn1-O1-Zn1-O2  120.000
  170     2    12    14
  171     2    14   163
  172     2    11    12   # Zn1-O1-Zn1-O2  120.000
  173     2    12    14
  174     2    14   259
  175     2    11    12   # Zn1-O1-Zn1-O2  120.000
  176     2    12    15
  177     2    15   249
  178     2    11    12   # Zn1-O1-Zn1-O2  120.000
  179     2    12    15
  180     2    15   355
  181     2    14    12   # Zn1-O1-Zn1-O2  120.000
  182     2    12    13
  183     2    13    83
  184     2    14    12   # Zn1-O1-Zn1-O2  120.000
  185     2    12    13
  186     2    13   345
  187     2    13    12   # Zn1-O1-Zn1-O2  120.000
  188     2    12    14
  189     2    14   185
  190     2    13    12   # Zn1-O1-Zn1-O2  120.000
  191     2    12    14
  192     2    14   259
  193     2    15    12   # Zn1-O1-Zn1-O2  120.000
  194     2    12    13
  195     2    13    83
  196     2    15    12   # Zn1-O1-Zn1-O2  120.000
  197     2    12    13
  198     2    13   153
  199     2    13    12   # Zn1-O1-Zn1-O2  120.000
  200     2    12    15
  201     2    15   249