LAMMPS data file generated by pbc_datagen
       552 atoms
       128 bonds
         0 angles
         0 dihedrals
         0 impropers
         8 atom types
         1 bond types
         0 angle types
         0 dihedral types
         0 improper types
 
    0.000    25.832           xlo xhi
    0.000    25.832           ylo yhi
    0.000    25.832           zlo zhi
    0.000     0.000     0.000 xy xz yz
 
 Atoms
 
    1 1     7 0.000000   7.579   5.337   5.337   # Zn1
    2 1     5 0.000000   6.458   6.458   6.458   # O1
    3 1     7 0.000000   5.337   7.579   5.337   # Zn1
    4 1     7 0.000000   5.337   5.337   7.579   # Zn1
    5 1     7 0.000000   7.579   7.579   7.579   # Zn1
    6 1     7 0.000000  18.253  20.495   5.337   # Zn1
    7 1     5 0.000000  19.374  19.374   6.458   # O1
    8 1     7 0.000000  20.495  18.253   5.337   # Zn1
    9 1     7 0.000000  20.495  20.495   7.579   # Zn1
   10 1     7 0.000000  18.253  18.253   7.579   # Zn1
   11 1     7 0.000000  18.253   5.337  20.495   # Zn1
   12 1     5 0.000000  19.374   6.458  19.374   # O1
   13 1     7 0.000000  20.495   7.579  20.495   # Zn1
   14 1     7 0.000000  20.495   5.337  18.253   # Zn1
   15 1     7 0.000000  18.253   7.579  18.253   # Zn1
   16 1     7 0.000000   7.579  20.495  20.495   # Zn1
   17 1     5 0.000000   6.458  19.374  19.374   # O1
   18 1     7 0.000000   5.337  18.253  20.495   # Zn1
   19 1     7 0.000000   5.337  20.495  18.253   # Zn1
   20 1     7 0.000000   7.579  18.253  18.253   # Zn1
   21 1     7 0.000000   5.337   7.579  20.495   # Zn1
   22 1     5 0.000000   6.458   6.458  19.374   # O1
   23 1     7 0.000000   7.579   5.337  20.495   # Zn1
   24 1     7 0.000000   5.337   5.337  18.253   # Zn1
   25 1     7 0.000000   7.579   7.579  18.253   # Zn1
   26 1     7 0.000000  20.495  18.253  20.495   # Zn1
   27 1     5 0.000000  19.374  19.374  19.374   # O1
   28 1     7 0.000000  18.253  20.495  20.495   # Zn1
   29 1     7 0.000000  20.495  20.495  18.253   # Zn1
   30 1     7 0.000000  18.253  18.253  18.253   # Zn1
   31 1     7 0.000000   5.337  18.253   5.337   # Zn1
   32 1     5 0.000000   6.458  19.374   6.458   # O1
   33 1     7 0.000000   7.579  20.495   5.337   # Zn1
   34 1     7 0.000000   5.337  20.495   7.579   # Zn1
   35 1     7 0.000000   7.579  18.253   7.579   # Zn1
   36 1     7 0.000000  20.495   7.579   5.337   # Zn1
   37 1     5 0.000000  19.374   6.458   6.458   # O1
   38 1     7 0.000000  18.253   5.337   5.337   # Zn1
   39 1     7 0.000000  20.495   5.337   7.579   # Zn1
   40 1     7 0.000000  18.253   7.579   7.579   # Zn1
   41 1     6 0.000000   7.282   5.634  29.293   # O2
   42 1     1 0.000000   6.458   6.458  28.707   # C1
   43 1     2 0.000000   6.458   6.458  27.222   # C2
   44 1     3 0.000000   7.308   5.608  26.527   # C3
   45 1     4 0.000000   7.876   5.040  26.989   # H1
   46 1     6 0.000000   7.282   5.634  22.371   # O2
   47 1     1 0.000000   6.458   6.458  22.957   # C1
   48 1     2 0.000000   6.458   6.458  24.442   # C2
   49 1     3 0.000000   7.308   5.608  25.137   # C3
   50 1     4 0.000000   7.876   5.040  24.675   # H1
   51 1     6 0.000000   5.634   7.282  29.293   # O2
   52 1     3 0.000000   5.608   7.308  26.527   # C3
   53 1     4 0.000000   5.040   7.876  26.989   # H1
   54 1     6 0.000000   5.634   7.282  22.371   # O2
   55 1     3 0.000000   5.608   7.308  25.137   # C3
   56 1     4 0.000000   5.040   7.876  24.675   # H1
   57 1     6 0.000000  18.550  20.198  29.293   # O2
   58 1     1 0.000000  19.374  19.374  28.707   # C1
   59 1     2 0.000000  19.374  19.374  27.222   # C2
   60 1     3 0.000000  18.524  20.224  26.527   # C3
   61 1     4 0.000000  17.956  20.792  26.989   # H1
   62 1     6 0.000000  18.550  20.198  22.371   # O2
   63 1     1 0.000000  19.374  19.374  22.957   # C1
   64 1     2 0.000000  19.374  19.374  24.442   # C2
   65 1     3 0.000000  18.524  20.224  25.137   # C3
   66 1     4 0.000000  17.956  20.792  24.675   # H1
   67 1     6 0.000000  20.198  18.550  29.293   # O2
   68 1     3 0.000000  20.224  18.524  26.527   # C3
   69 1     4 0.000000  20.792  17.956  26.989   # H1
   70 1     6 0.000000  20.198  18.550  22.371   # O2
   71 1     3 0.000000  20.224  18.524  25.137   # C3
   72 1     4 0.000000  20.792  17.956  24.675   # H1
   73 1     6 0.000000  18.550   5.634  22.371   # O2
   74 1     1 0.000000  19.374   6.458  22.957   # C1
   75 1     2 0.000000  19.374   6.458  24.442   # C2
   76 1     3 0.000000  18.524   5.608  25.137   # C3
   77 1     4 0.000000  17.956   5.040  24.675   # H1
   78 1     6 0.000000  18.550   5.634  29.293   # O2
   79 1     1 0.000000  19.374   6.458  28.707   # C1
   80 1     2 0.000000  19.374   6.458  27.222   # C2
   81 1     3 0.000000  18.524   5.608  26.527   # C3
   82 1     4 0.000000  17.956   5.040  26.989   # H1
   83 1     6 0.000000  20.198   7.282  22.371   # O2
   84 1     3 0.000000  20.224   7.308  25.137   # C3
   85 1     4 0.000000  20.792   7.876  24.675   # H1
   86 1     6 0.000000  20.198   7.282  29.293   # O2
   87 1     3 0.000000  20.224   7.308  26.527   # C3
   88 1     4 0.000000  20.792   7.876  26.989   # H1
   89 1     6 0.000000   7.282  20.198  22.371   # O2
   90 1     1 0.000000   6.458  19.374  22.957   # C1
   91 1     2 0.000000   6.458  19.374  24.442   # C2
   92 1     3 0.000000   7.308  20.224  25.137   # C3
   93 1     4 0.000000   7.876  20.792  24.675   # H1
   94 1     6 0.000000   7.282  20.198  29.293   # O2
   95 1     1 0.000000   6.458  19.374  28.707   # C1
   96 1     2 0.000000   6.458  19.374  27.222   # C2
   97 1     3 0.000000   7.308  20.224  26.527   # C3
   98 1     4 0.000000   7.876  20.792  26.989   # H1
   99 1     6 0.000000   5.634  18.550  22.371   # O2
  100 1     3 0.000000   5.608  18.524  25.137   # C3
  101 1     4 0.000000   5.040  17.956  24.675   # H1
  102 1     6 0.000000   5.634  18.550  29.293   # O2
  103 1     3 0.000000   5.608  18.524  26.527   # C3
  104 1     4 0.000000   5.040  17.956  26.989   # H1
  105 1     6 0.000000  29.293   7.282   5.634   # O2
  106 1     1 0.000000  28.707   6.458   6.458   # C1
  107 1     2 0.000000  27.222   6.458   6.458   # C2
  108 1     3 0.000000  26.527   7.308   5.608   # C3
  109 1     4 0.000000  26.989   7.876   5.040   # H1
  110 1     6 0.000000  22.371   7.282   5.634   # O2
  111 1     1 0.000000  22.957   6.458   6.458   # C1
  112 1     2 0.000000  24.442   6.458   6.458   # C2
  113 1     3 0.000000  25.137   7.308   5.608   # C3
  114 1     4 0.000000  24.675   7.876   5.040   # H1
  115 1     6 0.000000  29.293   5.634   7.282   # O2
  116 1     3 0.000000  26.527   5.608   7.308   # C3
  117 1     4 0.000000  26.989   5.040   7.876   # H1
  118 1     6 0.000000  22.371   5.634   7.282   # O2
  119 1     3 0.000000  25.137   5.608   7.308   # C3
  120 1     4 0.000000  24.675   5.040   7.876   # H1
  121 1     6 0.000000  29.293  18.550  20.198   # O2
  122 1     1 0.000000  28.707  19.374  19.374   # C1
  123 1     2 0.000000  27.222  19.374  19.374   # C2
  124 1     3 0.000000  26.527  18.524  20.224   # C3
  125 1     4 0.000000  26.989  17.956  20.792   # H1
  126 1     6 0.000000  22.371  18.550  20.198   # O2
  127 1     1 0.000000  22.957  19.374  19.374   # C1
  128 1     2 0.000000  24.442  19.374  19.374   # C2
  129 1     3 0.000000  25.137  18.524  20.224   # C3
  130 1     4 0.000000  24.675  17.956  20.792   # H1
  131 1     6 0.000000  29.293  20.198  18.550   # O2
  132 1     3 0.000000  26.527  20.224  18.524   # C3
  133 1     4 0.000000  26.989  20.792  17.956   # H1
  134 1     6 0.000000  22.371  20.198  18.550   # O2
  135 1     3 0.000000  25.137  20.224  18.524   # C3
  136 1     4 0.000000  24.675  20.792  17.956   # H1
  137 1     6 0.000000  22.371  18.550   5.634   # O2
  138 1     1 0.000000  22.957  19.374   6.458   # C1
  139 1     2 0.000000  24.442  19.374   6.458   # C2
  140 1     3 0.000000  25.137  18.524   5.608   # C3
  141 1     4 0.000000  24.675  17.956   5.040   # H1
  142 1     6 0.000000  29.293  18.550   5.634   # O2
  143 1     1 0.000000  28.707  19.374   6.458   # C1
  144 1     2 0.000000  27.222  19.374   6.458   # C2
  145 1     3 0.000000  26.527  18.524   5.608   # C3
  146 1     4 0.000000  26.989  17.956   5.040   # H1
  147 1     6 0.000000  22.371  20.198   7.282   # O2
  148 1     3 0.000000  25.137  20.224   7.308   # C3
  149 1     4 0.000000  24.675  20.792   7.876   # H1
  150 1     6 0.000000  29.293  20.198   7.282   # O2
  151 1     3 0.000000  26.527  20.224   7.308   # C3
  152 1     4 0.000000  26.989  20.792   7.876   # H1
  153 1     6 0.000000  22.371   7.282  20.198   # O2
  154 1     1 0.000000  22.957   6.458  19.374   # C1
  155 1     2 0.000000  24.442   6.458  19.374   # C2
  156 1     3 0.000000  25.137   7.308  20.224   # C3
  157 1     4 0.000000  24.675   7.876  20.792   # H1
  158 1     6 0.000000  29.293   7.282  20.198   # O2
  159 1     1 0.000000  28.707   6.458  19.374   # C1
  160 1     2 0.000000  27.222   6.458  19.374   # C2
  161 1     3 0.000000  26.527   7.308  20.224   # C3
  162 1     4 0.000000  26.989   7.876  20.792   # H1
  163 1     6 0.000000  22.371   5.634  18.550   # O2
  164 1     3 0.000000  25.137   5.608  18.524   # C3
  165 1     4 0.000000  24.675   5.040  17.956   # H1
  166 1     6 0.000000  29.293   5.634  18.550   # O2
  167 1     3 0.000000  26.527   5.608  18.524   # C3
  168 1     4 0.000000  26.989   5.040  17.956   # H1
  169 1     6 0.000000   5.634  29.293   7.282   # O2
  170 1     1 0.000000   6.458  28.707   6.458   # C1
  171 1     2 0.000000   6.458  27.222   6.458   # C2
  172 1     3 0.000000   5.608  26.527   7.308   # C3
  173 1     4 0.000000   5.040  26.989   7.876   # H1
  174 1     6 0.000000   5.634  22.371   7.282   # O2
  175 1     1 0.000000   6.458  22.957   6.458   # C1
  176 1     2 0.000000   6.458  24.442   6.458   # C2
  177 1     3 0.000000   5.608  25.137   7.308   # C3
  178 1     4 0.000000   5.040  24.675   7.876   # H1
  179 1     6 0.000000   7.282  29.293   5.634   # O2
  180 1     3 0.000000   7.308  26.527   5.608   # C3
  181 1     4 0.000000   7.876  26.989   5.040   # H1
  182 1     6 0.000000   7.282  22.371   5.634   # O2
  183 1     3 0.000000   7.308  25.137   5.608   # C3
  184 1     4 0.000000   7.876  24.675   5.040   # H1
  185 1     6 0.000000  20.198  29.293  18.550   # O2
  186 1     1 0.000000  19.374  28.707  19.374   # C1
  187 1     2 0.000000  19.374  27.222  19.374   # C2
  188 1     3 0.000000  20.224  26.527  18.524   # C3
  189 1     4 0.000000  20.792  26.989  17.956   # H1
  190 1     6 0.000000  20.198  22.371  18.550   # O2
  191 1     1 0.000000  19.374  22.957  19.374   # C1
  192 1     2 0.000000  19.374  24.442  19.374   # C2
  193 1     3 0.000000  20.224  25.137  18.524   # C3
  194 1     4 0.000000  20.792  24.675  17.956   # H1
  195 1     6 0.000000  18.550  29.293  20.198   # O2
  196 1     3 0.000000  18.524  26.527  20.224   # C3
  197 1     4 0.000000  17.956  26.989  20.792   # H1
  198 1     6 0.000000  18.550  22.371  20.198   # O2
  199 1     3 0.000000  18.524  25.137  20.224   # C3
  200 1     4 0.000000  17.956  24.675  20.792   # H1
  201 1     6 0.000000   5.634  22.371  18.550   # O2
  202 1     1 0.000000   6.458  22.957  19.374   # C1
  203 1     2 0.000000   6.458  24.442  19.374   # C2
  204 1     3 0.000000   5.608  25.137  18.524   # C3
  205 1     4 0.000000   5.040  24.675  17.956   # H1
  206 1     6 0.000000   5.634  29.293  18.550   # O2
  207 1     1 0.000000   6.458  28.707  19.374   # C1
  208 1     2 0.000000   6.458  27.222  19.374   # C2
  209 1     3 0.000000   5.608  26.527  18.524   # C3
  210 1     4 0.000000   5.040  26.989  17.956   # H1
  211 1     6 0.000000   7.282  22.371  20.198   # O2
  212 1     3 0.000000   7.308  25.137  20.224   # C3
  213 1     4 0.000000   7.876  24.675  20.792   # H1
  214 1     6 0.000000   7.282  29.293  20.198   # O2
  215 1     3 0.000000   7.308  26.527  20.224   # C3
  216 1     4 0.000000   7.876  26.989  20.792   # H1
  217 1     6 0.000000  20.198  22.371   7.282   # O2
  218 1     1 0.000000  19.374  22.957   6.458   # C1
  219 1     2 0.000000  19.374  24.442   6.458   # C2
  220 1     3 0.000000  20.224  25.137   7.308   # C3
  221 1     4 0.000000  20.792  24.675   7.876   # H1
  222 1     6 0.000000  20.198  29.293   7.282   # O2
  223 1     1 0.000000  19.374  28.707   6.458   # C1
  224 1     2 0.000000  19.374  27.222   6.458   # C2
  225 1     3 0.000000  20.224  26.527   7.308   # C3
  226 1     4 0.000000  20.792  26.989   7.876   # H1
  227 1     6 0.000000  18.550  22.371   5.634   # O2
  228 1     3 0.000000  18.524  25.137   5.608   # C3
  229 1     4 0.000000  17.956  24.675   5.040   # H1
  230 1     6 0.000000  18.550  29.293   5.634   # O2
  231 1     3 0.000000  18.524  26.527   5.608   # C3
  232 1     4 0.000000  17.956  26.989   5.040   # H1
  233 1     6 0.000000   7.282  18.550  16.377   # O2
  234 1     1 0.000000   6.458  19.374  15.791   # C1
  235 1     2 0.000000   6.458  19.374  14.306   # C2
  236 1     3 0.000000   7.308  18.524  13.611   # C3
  237 1     4 0.000000   7.876  17.956  14.073   # H1
  238 1     6 0.000000   7.282  18.550   9.455   # O2
  239 1     1 0.000000   6.458  19.374  10.041   # C1
  240 1     2 0.000000   6.458  19.374  11.526   # C2
  241 1     3 0.000000   7.308  18.524  12.221   # C3
  242 1     4 0.000000   7.876  17.956  11.759   # H1
  243 1     6 0.000000   5.634  20.198  16.377   # O2
  244 1     3 0.000000   5.608  20.224  13.611   # C3
  245 1     4 0.000000   5.040  20.792  14.073   # H1
  246 1     6 0.000000   5.634  20.198   9.455   # O2
  247 1     3 0.000000   5.608  20.224  12.221   # C3
  248 1     4 0.000000   5.040  20.792  11.759   # H1
  249 1     6 0.000000  18.550   7.282  16.377   # O2
  250 1     1 0.000000  19.374   6.458  15.791   # C1
  251 1     2 0.000000  19.374   6.458  14.306   # C2
  252 1     3 0.000000  18.524   7.308  13.611   # C3
  253 1     4 0.000000  17.956   7.876  14.073   # H1
  254 1     6 0.000000  18.550   7.282   9.455   # O2
  255 1     1 0.000000  19.374   6.458  10.041   # C1
  256 1     2 0.000000  19.374   6.458  11.526   # C2
  257 1     3 0.000000  18.524   7.308  12.221   # C3
  258 1     4 0.000000  17.956   7.876  11.759   # H1
  259 1     6 0.000000  20.198   5.634  16.377   # O2
  260 1     3 0.000000  20.224   5.608  13.611   # C3
  261 1     4 0.000000  20.792   5.040  14.073   # H1
  262 1     6 0.000000  20.198   5.634   9.455   # O2
  263 1     3 0.000000  20.224   5.608  12.221   # C3
  264 1     4 0.000000  20.792   5.040  11.759   # H1
  265 1     6 0.000000  18.550  18.550   9.455   # O2
  266 1     1 0.000000  19.374  19.374  10.041   # C1
  267 1     2 0.000000  19.374  19.374  11.526   # C2
  268 1     3 0.000000  18.524  18.524  12.221   # C3
  269 1     4 0.000000  17.956  17.956  11.759   # H1
  270 1     6 0.000000  18.550  18.550  16.377   # O2
  271 1     1 0.000000  19.374  19.374  15.791   # C1
  272 1     2 0.000000  19.374  19.374  14.306   # C2
  273 1     3 0.000000  18.524  18.524  13.611   # C3
  274 1     4 0.000000  17.956  17.956  14.073   # H1
  275 1     6 0.000000  20.198  20.198   9.455   # O2
  276 1     3 0.000000  20.224  20.224  12.221   # C3
  277 1     4 0.000000  20.792  20.792  11.759   # H1
  278 1     6 0.000000  20.198  20.198  16.377   # O2
  279 1     3 0.000000  20.224  20.224  13.611   # C3
  280 1     4 0.000000  20.792  20.792  14.073   # H1
  281 1     6 0.000000   7.282   7.282   9.455   # O2
  282 1     1 0.000000   6.458   6.458  10.041   # C1
  283 1     2 0.000000   6.458   6.458  11.526   # C2
  284 1     3 0.000000   7.308   7.308  12.221   # C3
  285 1     4 0.000000   7.876   7.876  11.759   # H1
  286 1     6 0.000000   7.282   7.282  16.377   # O2
  287 1     1 0.000000   6.458   6.458  15.791   # C1
  288 1     2 0.000000   6.458   6.458  14.306   # C2
  289 1     3 0.000000   7.308   7.308  13.611   # C3
  290 1     4 0.000000   7.876   7.876  14.073   # H1
  291 1     6 0.000000   5.634   5.634   9.455   # O2
  292 1     3 0.000000   5.608   5.608  12.221   # C3
  293 1     4 0.000000   5.040   5.040  11.759   # H1
  294 1     6 0.000000   5.634   5.634  16.377   # O2
  295 1     3 0.000000   5.608   5.608  13.611   # C3
  296 1     4 0.000000   5.040   5.040  14.073   # H1
  297 1     6 0.000000   5.634  16.377  20.198   # O2
  298 1     1 0.000000   6.458  15.791  19.374   # C1
  299 1     2 0.000000   6.458  14.306  19.374   # C2
  300 1     3 0.000000   5.608  13.611  20.224   # C3
  301 1     4 0.000000   5.040  14.073  20.792   # H1
  302 1     6 0.000000   5.634   9.455  20.198   # O2
  303 1     1 0.000000   6.458  10.041  19.374   # C1
  304 1     2 0.000000   6.458  11.526  19.374   # C2
  305 1     3 0.000000   5.608  12.221  20.224   # C3
  306 1     4 0.000000   5.040  11.759  20.792   # H1
  307 1     6 0.000000   7.282  16.377  18.550   # O2
  308 1     3 0.000000   7.308  13.611  18.524   # C3
  309 1     4 0.000000   7.876  14.073  17.956   # H1
  310 1     6 0.000000   7.282   9.455  18.550   # O2
  311 1     3 0.000000   7.308  12.221  18.524   # C3
  312 1     4 0.000000   7.876  11.759  17.956   # H1
  313 1     6 0.000000  20.198  16.377   5.634   # O2
  314 1     1 0.000000  19.374  15.791   6.458   # C1
  315 1     2 0.000000  19.374  14.306   6.458   # C2
  316 1     3 0.000000  20.224  13.611   5.608   # C3
  317 1     4 0.000000  20.792  14.073   5.040   # H1
  318 1     6 0.000000  20.198   9.455   5.634   # O2
  319 1     1 0.000000  19.374  10.041   6.458   # C1
  320 1     2 0.000000  19.374  11.526   6.458   # C2
  321 1     3 0.000000  20.224  12.221   5.608   # C3
  322 1     4 0.000000  20.792  11.759   5.040   # H1
  323 1     6 0.000000  18.550  16.377   7.282   # O2
  324 1     3 0.000000  18.524  13.611   7.308   # C3
  325 1     4 0.000000  17.956  14.073   7.876   # H1
  326 1     6 0.000000  18.550   9.455   7.282   # O2
  327 1     3 0.000000  18.524  12.221   7.308   # C3
  328 1     4 0.000000  17.956  11.759   7.876   # H1
  329 1     6 0.000000   5.634   9.455   5.634   # O2
  330 1     1 0.000000   6.458  10.041   6.458   # C1
  331 1     2 0.000000   6.458  11.526   6.458   # C2
  332 1     3 0.000000   5.608  12.221   5.608   # C3
  333 1     4 0.000000   5.040  11.759   5.040   # H1
  334 1     6 0.000000   5.634  16.377   5.634   # O2
  335 1     1 0.000000   6.458  15.791   6.458   # C1
  336 1     2 0.000000   6.458  14.306   6.458   # C2
  337 1     3 0.000000   5.608  13.611   5.608   # C3
  338 1     4 0.000000   5.040  14.073   5.040   # H1
  339 1     6 0.000000   7.282   9.455   7.282   # O2
  340 1     3 0.000000   7.308  12.221   7.308   # C3
  341 1     4 0.000000   7.876  11.759   7.876   # H1
  342 1     6 0.000000   7.282  16.377   7.282   # O2
  343 1     3 0.000000   7.308  13.611   7.308   # C3
  344 1     4 0.000000   7.876  14.073   7.876   # H1
  345 1     6 0.000000  20.198   9.455  20.198   # O2
  346 1     1 0.000000  19.374  10.041  19.374   # C1
  347 1     2 0.000000  19.374  11.526  19.374   # C2
  348 1     3 0.000000  20.224  12.221  20.224   # C3
  349 1     4 0.000000  20.792  11.759  20.792   # H1
  350 1     6 0.000000  20.198  16.377  20.198   # O2
  351 1     1 0.000000  19.374  15.791  19.374   # C1
  352 1     2 0.000000  19.374  14.306  19.374   # C2
  353 1     3 0.000000  20.224  13.611  20.224   # C3
  354 1     4 0.000000  20.792  14.073  20.792   # H1
  355 1     6 0.000000  18.550   9.455  18.550   # O2
  356 1     3 0.000000  18.524  12.221  18.524   # C3
  357 1     4 0.000000  17.956  11.759  17.956   # H1
  358 1     6 0.000000  18.550  16.377  18.550   # O2
  359 1     3 0.000000  18.524  13.611  18.524   # C3
  360 1     4 0.000000  17.956  14.073  17.956   # H1
  361 1     6 0.000000  16.377   7.282  18.550   # O2
  362 1     1 0.000000  15.791   6.458  19.374   # C1
  363 1     2 0.000000  14.306   6.458  19.374   # C2
  364 1     3 0.000000  13.611   7.308  18.524   # C3
  365 1     4 0.000000  14.073   7.876  17.956   # H1
  366 1     6 0.000000   9.455   7.282  18.550   # O2
  367 1     1 0.000000  10.041   6.458  19.374   # C1
  368 1     2 0.000000  11.526   6.458  19.374   # C2
  369 1     3 0.000000  12.221   7.308  18.524   # C3
  370 1     4 0.000000  11.759   7.876  17.956   # H1
  371 1     6 0.000000  16.377   5.634  20.198   # O2
  372 1     3 0.000000  13.611   5.608  20.224   # C3
  373 1     4 0.000000  14.073   5.040  20.792   # H1
  374 1     6 0.000000   9.455   5.634  20.198   # O2
  375 1     3 0.000000  12.221   5.608  20.224   # C3
  376 1     4 0.000000  11.759   5.040  20.792   # H1
  377 1     6 0.000000  16.377  18.550   7.282   # O2
  378 1     1 0.000000  15.791  19.374   6.458   # C1
  379 1     2 0.000000  14.306  19.374   6.458   # C2
  380 1     3 0.000000  13.611  18.524   7.308   # C3
  381 1     4 0.000000  14.073  17.956   7.876   # H1
  382 1     6 0.000000   9.455  18.550   7.282   # O2
  383 1     1 0.000000  10.041  19.374   6.458   # C1
  384 1     2 0.000000  11.526  19.374   6.458   # C2
  385 1     3 0.000000  12.221  18.524   7.308   # C3
  386 1     4 0.000000  11.759  17.956   7.876   # H1
  387 1     6 0.000000  16.377  20.198   5.634   # O2
  388 1     3 0.000000  13.611  20.224   5.608   # C3
  389 1     4 0.000000  14.073  20.792   5.040   # H1
  390 1     6 0.000000   9.455  20.198   5.634   # O2
  391 1     3 0.000000  12.221  20.224   5.608   # C3
  392 1     4 0.000000  11.759  20.792   5.040   # H1
  393 1     6 0.000000   9.455  18.550  18.550   # O2
  394 1     1 0.000000  10.041  19.374  19.374   # C1
  395 1     2 0.000000  11.526  19.374  19.374   # C2
  396 1     3 0.000000  12.221  18.524  18.524   # C3
  397 1     4 0.000000  11.759  17.956  17.956   # H1
  398 1     6 0.000000  16.377  18.550  18.550   # O2
  399 1     1 0.000000  15.791  19.374  19.374   # C1
  400 1     2 0.000000  14.306  19.374  19.374   # C2
  401 1     3 0.000000  13.611  18.524  18.524   # C3
  402 1     4 0.000000  14.073  17.956  17.956   # H1
  403 1     6 0.000000   9.455  20.198  20.198   # O2
  404 1     3 0.000000  12.221  20.224  20.224   # C3
  405 1     4 0.000000  11.759  20.792  20.792   # H1
  406 1     6 0.000000  16.377  20.198  20.198   # O2
  407 1     3 0.000000  13.611  20.224  20.224   # C3
  408 1     4 0.000000  14.073  20.792  20.792   # H1
  409 1     6 0.000000   9.455   7.282   7.282   # O2
  410 1     1 0.000000  10.041   6.458   6.458   # C1
  411 1     2 0.000000  11.526   6.458   6.458   # C2
  412 1     3 0.000000  12.221   7.308   7.308   # C3
  413 1     4 0.000000  11.759   7.876   7.876   # H1
  414 1     6 0.000000  16.377   7.282   7.282   # O2
  415 1     1 0.000000  15.791   6.458   6.458   # C1
  416 1     2 0.000000  14.306   6.458   6.458   # C2
  417 1     3 0.000000  13.611   7.308   7.308   # C3
  418 1     4 0.000000  14.073   7.876   7.876   # H1
  419 1     6 0.000000   9.455   5.634   5.634   # O2
  420 1     3 0.000000  12.221   5.608   5.608   # C3
  421 1     4 0.000000  11.759   5.040   5.040   # H1
  422 1     6 0.000000  16.377   5.634   5.634   # O2
  423 1     3 0.000000  13.611   5.608   5.608   # C3
  424 1     4 0.000000  14.073   5.040   5.040   # H1
  425 1     8 0.000000   7.486   5.430   4.751   # X
  426 1     8 0.000000   7.486   4.751   5.430   # X
  427 1     8 0.000000   7.233   5.683   5.683   # X
  428 1     8 0.000000   8.165   5.430   5.430   # X
  429 1     8 0.000000   5.430   7.486   4.751   # X
  430 1     8 0.000000   4.751   7.486   5.430   # X
  431 1     8 0.000000   5.683   7.233   5.683   # X
  432 1     8 0.000000   5.430   8.165   5.430   # X
  433 1     8 0.000000   5.430   4.751   7.486   # X
  434 1     8 0.000000   4.751   5.430   7.486   # X
  435 1     8 0.000000   5.683   5.683   7.233   # X
  436 1     8 0.000000   5.430   5.430   8.165   # X
  437 1     8 0.000000   7.233   7.233   7.233   # X
  438 1     8 0.000000   7.486   7.486   8.165   # X
  439 1     8 0.000000   7.486   8.165   7.486   # X
  440 1     8 0.000000   8.165   7.486   7.486   # X
  441 1     8 0.000000  18.346  20.402   4.751   # X
  442 1     8 0.000000  18.599  20.149   5.683   # X
  443 1     8 0.000000  18.346  21.081   5.430   # X
  444 1     8 0.000000  17.667  20.402   5.430   # X
  445 1     8 0.000000  20.402  18.346   4.751   # X
  446 1     8 0.000000  20.149  18.599   5.683   # X
  447 1     8 0.000000  21.081  18.346   5.430   # X
  448 1     8 0.000000  20.402  17.667   5.430   # X
  449 1     8 0.000000  20.149  20.149   7.233   # X
  450 1     8 0.000000  21.081  20.402   7.486   # X
  451 1     8 0.000000  20.402  21.081   7.486   # X
  452 1     8 0.000000  20.402  20.402   8.165   # X
  453 1     8 0.000000  18.599  18.599   7.233   # X
  454 1     8 0.000000  18.346  18.346   8.165   # X
  455 1     8 0.000000  18.346  17.667   7.486   # X
  456 1     8 0.000000  17.667  18.346   7.486   # X
  457 1     8 0.000000  18.346   4.751  20.402   # X
  458 1     8 0.000000  18.599   5.683  20.149   # X
  459 1     8 0.000000  18.346   5.430  21.081   # X
  460 1     8 0.000000  17.667   5.430  20.402   # X
  461 1     8 0.000000  20.149   7.233  20.149   # X
  462 1     8 0.000000  20.402   7.486  21.081   # X
  463 1     8 0.000000  21.081   7.486  20.402   # X
  464 1     8 0.000000  20.402   8.165  20.402   # X
  465 1     8 0.000000  20.402   4.751  18.346   # X
  466 1     8 0.000000  20.149   5.683  18.599   # X
  467 1     8 0.000000  21.081   5.430  18.346   # X
  468 1     8 0.000000  20.402   5.430  17.667   # X
  469 1     8 0.000000  18.599   7.233  18.599   # X
  470 1     8 0.000000  18.346   7.486  17.667   # X
  471 1     8 0.000000  18.346   8.165  18.346   # X
  472 1     8 0.000000  17.667   7.486  18.346   # X
  473 1     8 0.000000   7.233  20.149  20.149   # X
  474 1     8 0.000000   7.486  20.402  21.081   # X
  475 1     8 0.000000   7.486  21.081  20.402   # X
  476 1     8 0.000000   8.165  20.402  20.402   # X
  477 1     8 0.000000   4.751  18.346  20.402   # X
  478 1     8 0.000000   5.683  18.599  20.149   # X
  479 1     8 0.000000   5.430  18.346  21.081   # X
  480 1     8 0.000000   5.430  17.667  20.402   # X
  481 1     8 0.000000   4.751  20.402  18.346   # X
  482 1     8 0.000000   5.683  20.149  18.599   # X
  483 1     8 0.000000   5.430  21.081  18.346   # X
  484 1     8 0.000000   5.430  20.402  17.667   # X
  485 1     8 0.000000   7.233  18.599  18.599   # X
  486 1     8 0.000000   7.486  18.346  17.667   # X
  487 1     8 0.000000   7.486  17.667  18.346   # X
  488 1     8 0.000000   8.165  18.346  18.346   # X
  489 1     8 0.000000   4.751   7.486  20.402   # X
  490 1     8 0.000000   5.683   7.233  20.149   # X
  491 1     8 0.000000   5.430   7.486  21.081   # X
  492 1     8 0.000000   5.430   8.165  20.402   # X
  493 1     8 0.000000   7.486   4.751  20.402   # X
  494 1     8 0.000000   7.233   5.683  20.149   # X
  495 1     8 0.000000   7.486   5.430  21.081   # X
  496 1     8 0.000000   8.165   5.430  20.402   # X
  497 1     8 0.000000   5.430   4.751  18.346   # X
  498 1     8 0.000000   4.751   5.430  18.346   # X
  499 1     8 0.000000   5.683   5.683  18.599   # X
  500 1     8 0.000000   5.430   5.430  17.667   # X
  501 1     8 0.000000   7.233   7.233  18.599   # X
  502 1     8 0.000000   7.486   7.486  17.667   # X
  503 1     8 0.000000   7.486   8.165  18.346   # X
  504 1     8 0.000000   8.165   7.486  18.346   # X
  505 1     8 0.000000  20.149  18.599  20.149   # X
  506 1     8 0.000000  20.402  18.346  21.081   # X
  507 1     8 0.000000  21.081  18.346  20.402   # X
  508 1     8 0.000000  20.402  17.667  20.402   # X
  509 1     8 0.000000  18.599  20.149  20.149   # X
  510 1     8 0.000000  18.346  20.402  21.081   # X
  511 1     8 0.000000  18.346  21.081  20.402   # X
  512 1     8 0.000000  17.667  20.402  20.402   # X
  513 1     8 0.000000  20.149  20.149  18.599   # X
  514 1     8 0.000000  21.081  20.402  18.346   # X
  515 1     8 0.000000  20.402  21.081  18.346   # X
  516 1     8 0.000000  20.402  20.402  17.667   # X
  517 1     8 0.000000  18.599  18.599  18.599   # X
  518 1     8 0.000000  18.346  18.346  17.667   # X
  519 1     8 0.000000  18.346  17.667  18.346   # X
  520 1     8 0.000000  17.667  18.346  18.346   # X
  521 1     8 0.000000   5.430  18.346   4.751   # X
  522 1     8 0.000000   4.751  18.346   5.430   # X
  523 1     8 0.000000   5.683  18.599   5.683   # X
  524 1     8 0.000000   5.430  17.667   5.430   # X
  525 1     8 0.000000   7.486  20.402   4.751   # X
  526 1     8 0.000000   7.233  20.149   5.683   # X
  527 1     8 0.000000   7.486  21.081   5.430   # X
  528 1     8 0.000000   8.165  20.402   5.430   # X
  529 1     8 0.000000   4.751  20.402   7.486   # X
  530 1     8 0.000000   5.683  20.149   7.233   # X
  531 1     8 0.000000   5.430  21.081   7.486   # X
  532 1     8 0.000000   5.430  20.402   8.165   # X
  533 1     8 0.000000   7.233  18.599   7.233   # X
  534 1     8 0.000000   7.486  18.346   8.165   # X
  535 1     8 0.000000   7.486  17.667   7.486   # X
  536 1     8 0.000000   8.165  18.346   7.486   # X
  537 1     8 0.000000  20.402   7.486   4.751   # X
  538 1     8 0.000000  20.149   7.233   5.683   # X
  539 1     8 0.000000  21.081   7.486   5.430   # X
  540 1     8 0.000000  20.402   8.165   5.430   # X
  541 1     8 0.000000  18.346   5.430   4.751   # X
  542 1     8 0.000000  18.346   4.751   5.430   # X
  543 1     8 0.000000  18.599   5.683   5.683   # X
  544 1     8 0.000000  17.667   5.430   5.430   # X
  545 1     8 0.000000  20.402   4.751   7.486   # X
  546 1     8 0.000000  20.149   5.683   7.233   # X
  547 1     8 0.000000  21.081   5.430   7.486   # X
  548 1     8 0.000000  20.402   5.430   8.165   # X
  549 1     8 0.000000  18.599   7.233   7.233   # X